This job is running on host node31
Current directory: /share/home/Chenlehui/work/TS_work/wb97xd_6-31g
Fri Dec 12 16:59:41 CST 2025
/tmp/144678.mgr
 Entering Gaussian System, Link 0=g16
 Initial command:
 /share/apps/gaussian/g16/l1.exe "/tmp/144678.mgr/Gau-25256.inp" -scrdir="/tmp/144678.mgr/"
 Entering Link 1 = /share/apps/gaussian/g16/l1.exe PID=     25257.
  
 Copyright (c) 1988,1990,1992,1993,1995,1998,2003,2009,2016,
            Gaussian, Inc.  All Rights Reserved.
  
 This is part of the Gaussian(R) 16 program.  It is based on
 the Gaussian(R) 09 system (copyright 2009, Gaussian, Inc.),
 the Gaussian(R) 03 system (copyright 2003, Gaussian, Inc.),
 the Gaussian(R) 98 system (copyright 1998, Gaussian, Inc.),
 the Gaussian(R) 94 system (copyright 1995, Gaussian, Inc.),
 the Gaussian 92(TM) system (copyright 1992, Gaussian, Inc.),
 the Gaussian 90(TM) system (copyright 1990, Gaussian, Inc.),
 the Gaussian 88(TM) system (copyright 1988, Gaussian, Inc.),
 the Gaussian 86(TM) system (copyright 1986, Carnegie Mellon
 University), and the Gaussian 82(TM) system (copyright 1983,
 Carnegie Mellon University). Gaussian is a federally registered
 trademark of Gaussian, Inc.
  
 This software contains proprietary and confidential information,
 including trade secrets, belonging to Gaussian, Inc.
  
 This software is provided under written license and may be
 used, copied, transmitted, or stored only in accord with that
 written license.
  
 The following legend is applicable only to US Government
 contracts under FAR:
  
                    RESTRICTED RIGHTS LEGEND
  
 Use, reproduction and disclosure by the US Government is
 subject to restrictions as set forth in subparagraphs (a)
 and (c) of the Commercial Computer Software - Restricted
 Rights clause in FAR 52.227-19.
  
 Gaussian, Inc.
 340 Quinnipiac St., Bldg. 40, Wallingford CT 06492
  
  
 ---------------------------------------------------------------
 Warning -- This program may not be used in any manner that
 competes with the business of Gaussian, Inc. or will provide
 assistance to any competitor of Gaussian, Inc.  The licensee
 of this program is prohibited from giving any competitor of
 Gaussian, Inc. access to this program.  By using this program,
 the user acknowledges that Gaussian, Inc. is engaged in the
 business of creating and licensing software in the field of
 computational chemistry and represents and warrants to the
 licensee that it is not a competitor of Gaussian, Inc. and that
 it will not use this program in any manner prohibited above.
 ---------------------------------------------------------------
  

 Cite this work as:
 Gaussian 16, Revision A.03,
 M. J. Frisch, G. W. Trucks, H. B. Schlegel, G. E. Scuseria, 
 M. A. Robb, J. R. Cheeseman, G. Scalmani, V. Barone, 
 G. A. Petersson, H. Nakatsuji, X. Li, M. Caricato, A. V. Marenich, 
 J. Bloino, B. G. Janesko, R. Gomperts, B. Mennucci, H. P. Hratchian, 
 J. V. Ortiz, A. F. Izmaylov, J. L. Sonnenberg, D. Williams-Young, 
 F. Ding, F. Lipparini, F. Egidi, J. Goings, B. Peng, A. Petrone, 
 T. Henderson, D. Ranasinghe, V. G. Zakrzewski, J. Gao, N. Rega, 
 G. Zheng, W. Liang, M. Hada, M. Ehara, K. Toyota, R. Fukuda, 
 J. Hasegawa, M. Ishida, T. Nakajima, Y. Honda, O. Kitao, H. Nakai, 
 T. Vreven, K. Throssell, J. A. Montgomery, Jr., J. E. Peralta, 
 F. Ogliaro, M. J. Bearpark, J. J. Heyd, E. N. Brothers, K. N. Kudin, 
 V. N. Staroverov, T. A. Keith, R. Kobayashi, J. Normand, 
 K. Raghavachari, A. P. Rendell, J. C. Burant, S. S. Iyengar, 
 J. Tomasi, M. Cossi, J. M. Millam, M. Klene, C. Adamo, R. Cammi, 
 J. W. Ochterski, R. L. Martin, K. Morokuma, O. Farkas, 
 J. B. Foresman, and D. J. Fox, Gaussian, Inc., Wallingford CT, 2016.
 
 ******************************************
 Gaussian 16:  ES64L-G16RevA.03 25-Dec-2016
                12-Dec-2025 
 ******************************************
 %mem=16gb
 %nproc=16
 Will use up to   16 processors via shared memory.
 %chk=Step2_TS_wB97XD.chk
 ---------------------------------------------------------------
 # opt=(TS,calcfc,modredundant,NoEigenTest) wb97xd/6-31g(d) freq
 ---------------------------------------------------------------
 1/5=1,10=4,11=1,18=120,26=3,38=1/1,3;
 2/9=110,12=2,17=6,18=5,40=1/2;
 3/5=1,6=6,7=1,11=2,25=1,30=1,71=2,74=-58,140=1/1,2,3;
 4//1;
 5/5=2,38=5/2;
 8/6=4,10=90,11=11/1;
 11/6=1,8=1,9=11,15=111,16=1/1,2,10;
 10/6=1,13=1/2;
 6/7=2,8=2,9=2,10=2,28=1/1;
 7/10=1,18=20,25=1/1,2,3,16;
 1/5=1,10=4,11=1,18=20,26=3/3(2);
 2/9=110/2;
 99//99;
 2/9=110/2;
 3/5=1,6=6,7=1,11=2,25=1,30=1,71=1,74=-58/1,2,3;
 4/5=5,16=3,69=1/1;
 5/5=2,38=5/2;
 7//1,2,3,16;
 1/5=1,11=1,18=20,26=3/3(-5);
 2/9=110/2;
 6/7=2,8=2,9=2,10=2,19=2,28=1/1;
 99/9=1/99;
 ------------------------------------------------------------
 Step2: Final TS Search (Unfrozen) - wB97XD - New Coordinates
 ------------------------------------------------------------
 Symbolic Z-matrix:
 Charge =  0 Multiplicity = 1
 C                    -0.58757   1.37853  -0.46424 
 H                    -0.71174   2.44788  -0.31113 
 H                    -0.35829   1.1173   -1.49528 
 C                     1.39949   0.89738   0.22503 
 H                     1.34845   1.39869   1.18697 
 H                     1.96811   1.44747  -0.521 
 C                     1.53677  -0.54481   0.23017 
 H                     2.26773  -0.95359  -0.46601 
 H                     1.59121  -1.01646   1.20857 
 C                    -0.11509  -1.41405  -0.48802 
 H                     0.00087  -1.0728   -1.51635 
 H                     0.05217  -2.48567  -0.39283 
 C                    -1.41612   0.48956   0.28632 
 H                    -2.11319   0.90825   1.00933 
 C                    -1.2025   -0.85622   0.2657 
 H                    -1.73519  -1.49335   0.96801 
 
 Add virtual bond connecting atoms C1         and C4         Dist= 4.08D+00.
 Add virtual bond connecting atoms C10        and C7         Dist= 3.78D+00.
 The following ModRedundant input section has been read:
 B       7      10 A                                                           
 B       1       4 A                                                           
 

 GradGradGradGradGradGradGradGradGradGradGradGradGradGradGradGradGradGrad
 Berny optimization.
 Initialization pass.
                           ----------------------------
                           !    Initial Parameters    !
                           ! (Angstroms and Degrees)  !
 --------------------------                            --------------------------
 ! Name  Definition              Value          Derivative Info.                !
 --------------------------------------------------------------------------------
 ! R1    R(1,2)                  1.0874         calculate D2E/DX2 analytically  !
 ! R2    R(1,3)                  1.088          calculate D2E/DX2 analytically  !
 ! R3    R(1,4)                  2.1575         calculate D2E/DX2 analytically  !
 ! R4    R(1,13)                 1.4283         calculate D2E/DX2 analytically  !
 ! R5    R(4,5)                  1.0859         calculate D2E/DX2 analytically  !
 ! R6    R(4,6)                  1.0874         calculate D2E/DX2 analytically  !
 ! R7    R(4,7)                  1.4487         calculate D2E/DX2 analytically  !
 ! R8    R(7,8)                  1.0891         calculate D2E/DX2 analytically  !
 ! R9    R(7,9)                  1.0875         calculate D2E/DX2 analytically  !
 ! R10   R(7,10)                 2.0            calculate D2E/DX2 analytically  !
 ! R11   R(10,11)                1.0897         calculate D2E/DX2 analytically  !
 ! R12   R(10,12)                1.0888         calculate D2E/DX2 analytically  !
 ! R13   R(10,15)                1.4359         calculate D2E/DX2 analytically  !
 ! R14   R(13,14)                1.0881         calculate D2E/DX2 analytically  !
 ! R15   R(13,15)                1.3628         calculate D2E/DX2 analytically  !
 ! R16   R(15,16)                1.0876         calculate D2E/DX2 analytically  !
 ! A1    A(2,1,3)              113.1787         calculate D2E/DX2 analytically  !
 ! A2    A(2,1,4)              106.2304         calculate D2E/DX2 analytically  !
 ! A3    A(2,1,13)             118.1537         calculate D2E/DX2 analytically  !
 ! A4    A(3,1,4)               93.1593         calculate D2E/DX2 analytically  !
 ! A5    A(3,1,13)             118.0841         calculate D2E/DX2 analytically  !
 ! A6    A(4,1,13)             103.1543         calculate D2E/DX2 analytically  !
 ! A7    A(1,4,5)               97.8606         calculate D2E/DX2 analytically  !
 ! A8    A(1,4,6)               98.6036         calculate D2E/DX2 analytically  !
 ! A9    A(1,4,7)              108.0839         calculate D2E/DX2 analytically  !
 ! A10   A(5,4,6)              113.5009         calculate D2E/DX2 analytically  !
 ! A11   A(5,4,7)              117.4437         calculate D2E/DX2 analytically  !
 ! A12   A(6,4,7)              117.1594         calculate D2E/DX2 analytically  !
 ! A13   A(4,7,8)              115.7854         calculate D2E/DX2 analytically  !
 ! A14   A(4,7,9)              116.0832         calculate D2E/DX2 analytically  !
 ! A15   A(4,7,10)             110.6785         calculate D2E/DX2 analytically  !
 ! A16   A(8,7,9)              112.2538         calculate D2E/DX2 analytically  !
 ! A17   A(8,7,10)              99.3036         calculate D2E/DX2 analytically  !
 ! A18   A(9,7,10)             100.1319         calculate D2E/DX2 analytically  !
 ! A19   A(7,10,11)             96.5967         calculate D2E/DX2 analytically  !
 ! A20   A(7,10,12)            105.6346         calculate D2E/DX2 analytically  !
 ! A21   A(7,10,15)            105.5541         calculate D2E/DX2 analytically  !
 ! A22   A(11,10,12)           111.9872         calculate D2E/DX2 analytically  !
 ! A23   A(11,10,15)           117.0202         calculate D2E/DX2 analytically  !
 ! A24   A(12,10,15)           116.9248         calculate D2E/DX2 analytically  !
 ! A25   A(1,13,14)            118.7705         calculate D2E/DX2 analytically  !
 ! A26   A(1,13,15)            121.0465         calculate D2E/DX2 analytically  !
 ! A27   A(14,13,15)           119.3716         calculate D2E/DX2 analytically  !
 ! A28   A(10,15,13)           120.6841         calculate D2E/DX2 analytically  !
 ! A29   A(10,15,16)           118.8356         calculate D2E/DX2 analytically  !
 ! A30   A(13,15,16)           119.4678         calculate D2E/DX2 analytically  !
 ! D1    D(2,1,4,5)             49.1339         calculate D2E/DX2 analytically  !
 ! D2    D(2,1,4,6)            -66.2078         calculate D2E/DX2 analytically  !
 ! D3    D(2,1,4,7)            171.4444         calculate D2E/DX2 analytically  !
 ! D4    D(3,1,4,5)            164.3878         calculate D2E/DX2 analytically  !
 ! D5    D(3,1,4,6)             49.0461         calculate D2E/DX2 analytically  !
 ! D6    D(3,1,4,7)            -73.3017         calculate D2E/DX2 analytically  !
 ! D7    D(13,1,4,5)           -75.8047         calculate D2E/DX2 analytically  !
 ! D8    D(13,1,4,6)           168.8536         calculate D2E/DX2 analytically  !
 ! D9    D(13,1,4,7)            46.5058         calculate D2E/DX2 analytically  !
 ! D10   D(2,1,13,14)           -2.2802         calculate D2E/DX2 analytically  !
 ! D11   D(2,1,13,15)         -171.8996         calculate D2E/DX2 analytically  !
 ! D12   D(3,1,13,14)         -144.6108         calculate D2E/DX2 analytically  !
 ! D13   D(3,1,13,15)           45.7698         calculate D2E/DX2 analytically  !
 ! D14   D(4,1,13,14)          114.5032         calculate D2E/DX2 analytically  !
 ! D15   D(4,1,13,15)          -55.1162         calculate D2E/DX2 analytically  !
 ! D16   D(1,4,7,8)            115.064          calculate D2E/DX2 analytically  !
 ! D17   D(1,4,7,9)           -110.1247         calculate D2E/DX2 analytically  !
 ! D18   D(1,4,7,10)             3.0861         calculate D2E/DX2 analytically  !
 ! D19   D(5,4,7,8)           -135.5644         calculate D2E/DX2 analytically  !
 ! D20   D(5,4,7,9)             -0.7532         calculate D2E/DX2 analytically  !
 ! D21   D(5,4,7,10)           112.4577         calculate D2E/DX2 analytically  !
 ! D22   D(6,4,7,8)              4.919          calculate D2E/DX2 analytically  !
 ! D23   D(6,4,7,9)            139.7302         calculate D2E/DX2 analytically  !
 ! D24   D(6,4,7,10)          -107.0589         calculate D2E/DX2 analytically  !
 ! D25   D(4,7,10,11)           68.1707         calculate D2E/DX2 analytically  !
 ! D26   D(4,7,10,12)         -176.7583         calculate D2E/DX2 analytically  !
 ! D27   D(4,7,10,15)          -52.2874         calculate D2E/DX2 analytically  !
 ! D28   D(8,7,10,11)          -54.0367         calculate D2E/DX2 analytically  !
 ! D29   D(8,7,10,12)           61.0342         calculate D2E/DX2 analytically  !
 ! D30   D(8,7,10,15)         -174.4948         calculate D2E/DX2 analytically  !
 ! D31   D(9,7,10,11)         -168.8153         calculate D2E/DX2 analytically  !
 ! D32   D(9,7,10,12)          -53.7443         calculate D2E/DX2 analytically  !
 ! D33   D(9,7,10,15)           70.7267         calculate D2E/DX2 analytically  !
 ! D34   D(7,10,15,13)          57.7584         calculate D2E/DX2 analytically  !
 ! D35   D(7,10,15,16)        -110.6716         calculate D2E/DX2 analytically  !
 ! D36   D(11,10,15,13)        -48.2516         calculate D2E/DX2 analytically  !
 ! D37   D(11,10,15,16)        143.3184         calculate D2E/DX2 analytically  !
 ! D38   D(12,10,15,13)        174.831          calculate D2E/DX2 analytically  !
 ! D39   D(12,10,15,16)          6.401          calculate D2E/DX2 analytically  !
 ! D40   D(1,13,15,10)           1.5259         calculate D2E/DX2 analytically  !
 ! D41   D(1,13,15,16)         169.8835         calculate D2E/DX2 analytically  !
 ! D42   D(14,13,15,10)       -168.0321         calculate D2E/DX2 analytically  !
 ! D43   D(14,13,15,16)          0.3255         calculate D2E/DX2 analytically  !
 --------------------------------------------------------------------------------
 Trust Radius=3.00D-01 FncErr=1.00D-07 GrdErr=1.00D-06 EigMax=2.50D+02 EigMin=1.00D-04
 Number of steps in this run=     99 maximum allowed number of steps=    100.
 Search for a saddle point of order  1.
 GradGradGradGradGradGradGradGradGradGradGradGradGradGradGradGradGradGrad

                          Input orientation:                          
 ---------------------------------------------------------------------
 Center     Atomic      Atomic             Coordinates (Angstroms)
 Number     Number       Type             X           Y           Z
 ---------------------------------------------------------------------
      1          6           0       -0.587571    1.378526   -0.464242
      2          1           0       -0.711743    2.447878   -0.311134
      3          1           0       -0.358286    1.117301   -1.495279
      4          6           0        1.399486    0.897375    0.225033
      5          1           0        1.348454    1.398686    1.186971
      6          1           0        1.968107    1.447470   -0.521002
      7          6           0        1.536768   -0.544805    0.230166
      8          1           0        2.267734   -0.953594   -0.466007
      9          1           0        1.591207   -1.016462    1.208574
     10          6           0       -0.115087   -1.414046   -0.488021
     11          1           0        0.000871   -1.072798   -1.516352
     12          1           0        0.052171   -2.485670   -0.392829
     13          6           0       -1.416124    0.489556    0.286321
     14          1           0       -2.113185    0.908245    1.009327
     15          6           0       -1.202495   -0.856224    0.265697
     16          1           0       -1.735189   -1.493348    0.968006
 ---------------------------------------------------------------------
                    Distance matrix (angstroms):
                    1          2          3          4          5
     1  C    0.000000
     2  H    1.087370   0.000000
     3  H    1.088048   1.815920   0.000000
     4  C    2.157545   2.673728   2.469333   0.000000
     5  H    2.544622   2.754911   3.191646   1.085929   0.000000
     6  H    2.557238   2.868180   2.543685   1.087429   1.817559
     7  C    2.948596   3.782190   3.054666   1.448708   2.174418
     8  H    3.686672   4.524520   3.499141   2.158119   3.018383
     9  H    3.644359   4.428853   3.957814   2.160297   2.427413
    10  C    2.832360   3.911744   2.735221   2.853952   3.585946
    11  H    2.731701   3.788869   2.219453   2.978276   3.902841
    12  H    3.917446   4.993009   3.790154   3.693508   4.389116
    13  C    1.428325   2.165209   2.164990   2.845651   3.046404
    14  H    2.172572   2.465386   3.065359   3.599179   3.500719
    15  C    2.430031   3.389788   2.776423   3.138004   3.527138
    16  H    3.408229   4.268126   3.844363   4.011702   4.233280
                    6          7          8          9         10
     6  H    0.000000
     7  C    2.172433   0.000000
     8  H    2.420312   1.089071   0.000000
     9  H    3.033883   1.087523   1.807170   0.000000
    10  C    3.539641   1.999999   2.427002   2.438841   0.000000
    11  H    3.348506   2.384970   2.501220   3.155561   1.089661
    12  H    4.376852   2.521727   2.694686   2.663024   1.088768
    13  C    3.608655   3.129317   4.027343   3.487503   2.432284
    14  H    4.391994   4.005072   4.983523   4.179320   3.409909
    15  C    3.997326   2.757137   3.547867   2.952874   1.435866
    16  H    4.957818   3.485663   4.286154   3.369006   2.179687
                   11         12         13         14         15
    11  H    0.000000
    12  H    1.805863   0.000000
    13  C    2.774609   3.386607   0.000000
    14  H    3.843542   4.263035   1.088086   0.000000
    15  C    2.161179   2.159384   1.362786   2.120305   0.000000
    16  H    3.059869   2.455856   2.120944   2.431509   1.087625
                   16
    16  H    0.000000
 Stoichiometry    C6H10
 Framework group  C1[X(C6H10)]
 Deg. of freedom    42
 Full point group                 C1      NOp   1
 Largest Abelian subgroup         C1      NOp   1
 Largest concise Abelian subgroup C1      NOp   1
                         Standard orientation:                         
 ---------------------------------------------------------------------
 Center     Atomic      Atomic             Coordinates (Angstroms)
 Number     Number       Type             X           Y           Z
 ---------------------------------------------------------------------
      1          6           0       -0.587572   -1.378525    0.464242
      2          1           0       -0.711745   -2.447877    0.311134
      3          1           0       -0.358287   -1.117301    1.495279
      4          6           0        1.399485   -0.897376   -0.225033
      5          1           0        1.348453   -1.398687   -1.186971
      6          1           0        1.968106   -1.447472    0.521002
      7          6           0        1.536768    0.544804   -0.230166
      8          1           0        2.267735    0.953592    0.466007
      9          1           0        1.591208    1.016461   -1.208574
     10          6           0       -0.115086    1.414046    0.488021
     11          1           0        0.000872    1.072798    1.516352
     12          1           0        0.052173    2.485670    0.392829
     13          6           0       -1.416125   -0.489555   -0.286321
     14          1           0       -2.113186   -0.908243   -1.009327
     15          6           0       -1.202494    0.856225   -0.265697
     16          1           0       -1.735188    1.493350   -0.968006
 ---------------------------------------------------------------------
 Rotational constants (GHZ):           4.4272298           3.6659209           2.3541862
 Standard basis: 6-31G(d) (6D, 7F)
 There are   110 symmetry adapted cartesian basis functions of A   symmetry.
 There are   110 symmetry adapted basis functions of A   symmetry.
   110 basis functions,   208 primitive gaussians,   110 cartesian basis functions
    23 alpha electrons       23 beta electrons
       nuclear repulsion energy       226.0254397107 Hartrees.
 NAtoms=   16 NActive=   16 NUniq=   16 SFac= 1.00D+00 NAtFMM=   60 NAOKFM=F Big=F
 Integral buffers will be    131072 words long.
 Raffenetti 2 integral format.
 Two-electron integral symmetry is turned on.
 Nuclear repulsion after empirical dispersion term =      226.0165085379 Hartrees.
 One-electron integrals computed using PRISM.
 NBasis=   110 RedAO= T EigKep=  2.26D-03  NBF=   110
 NBsUse=   110 1.00D-06 EigRej= -1.00D+00 NBFU=   110
 ExpMin= 1.61D-01 ExpMax= 3.05D+03 ExpMxC= 4.57D+02 IAcc=3 IRadAn=         5 AccDes= 0.00D+00
 Harris functional with IExCor= 4639 and IRadAn=       5 diagonalized for initial guess.
 HarFok:  IExCor= 4639 AccDes= 0.00D+00 IRadAn=         5 IDoV= 1 UseB2=F ITyADJ=14
 ICtDFT=  3500011 ScaDFX=  1.000000  1.000000  1.000000  1.000000
 FoFCou: FMM=F IPFlag=           0 FMFlag=      100000 FMFlg1=           0
         NFxFlg=           0 DoJE=T BraDBF=F KetDBF=T FulRan=T
         wScrn=  0.000000 ICntrl=       500 IOpCl=  0 I1Cent=   200000004 NGrid=           0
         NMat0=    1 NMatS0=      1 NMatT0=    0 NMatD0=    1 NMtDS0=    0 NMtDT0=    0
 Petite list used in FoFCou.
 Requested convergence on RMS density matrix=1.00D-08 within 128 cycles.
 Requested convergence on MAX density matrix=1.00D-06.
 Requested convergence on             energy=1.00D-06.
 No special actions if energy rises.
 Integral accuracy reduced to 1.0D-05 until final iterations.
 Initial convergence to 1.0D-05 achieved.  Increase integral accuracy.
 SCF Done:  E(RwB97XD) =  -234.471057119     A.U. after   15 cycles
            NFock= 15  Conv=0.36D-08     -V/T= 2.0112
 DoSCS=F DFT=T ScalE2(SS,OS)=  1.000000  1.000000
 Range of M.O.s used for correlation:     1   110
 NBasis=   110 NAE=    23 NBE=    23 NFC=     0 NFV=     0
 NROrb=    110 NOA=    23 NOB=    23 NVA=    87 NVB=    87
 Symmetrizing basis deriv contribution to polar:
 IMax=3 JMax=2 DiffMx= 0.00D+00
 G2DrvN: will do    17 centers at a time, making    1 passes.
 Calling FoFCou, ICntrl=  3107 FMM=F I1Cent=   0 AccDes= 0.00D+00.
 End of G2Drv F.D. properties file   721 does not exist.
 End of G2Drv F.D. properties file   722 does not exist.
 End of G2Drv F.D. properties file   788 does not exist.
          IDoAtm=1111111111111111
          Differentiating once with respect to nuclear coordinates.
 Keep R1 ints in memory in canonical form, NReq=52179079.
          There are    51 degrees of freedom in the 1st order CPHF.  IDoFFX=6 NUNeed=     0.
     45 vectors produced by pass  0 Test12= 3.92D-15 1.96D-09 XBig12= 5.17D-02 8.19D-02.
 AX will form    45 AO Fock derivatives at one time.
     45 vectors produced by pass  1 Test12= 3.92D-15 1.96D-09 XBig12= 2.31D-03 1.67D-02.
     45 vectors produced by pass  2 Test12= 3.92D-15 1.96D-09 XBig12= 3.61D-05 1.60D-03.
     45 vectors produced by pass  3 Test12= 3.92D-15 1.96D-09 XBig12= 1.96D-07 7.78D-05.
     45 vectors produced by pass  4 Test12= 3.92D-15 1.96D-09 XBig12= 1.14D-09 5.37D-06.
     45 vectors produced by pass  5 Test12= 3.92D-15 1.96D-09 XBig12= 5.27D-12 3.98D-07.
     27 vectors produced by pass  6 Test12= 3.92D-15 1.96D-09 XBig12= 2.15D-14 1.78D-08.
 InvSVY:  IOpt=1 It=  1 EMax= 2.22D-16
 Solved reduced A of dimension   297 with    51 vectors.
 End of Minotr F.D. properties file   721 does not exist.
 End of Minotr F.D. properties file   722 does not exist.
 End of Minotr F.D. properties file   788 does not exist.

 **********************************************************************

            Population analysis using the SCF density.

 **********************************************************************

 Orbital symmetries:
       Occupied  (A) (A) (A) (A) (A) (A) (A) (A) (A) (A) (A) (A)
                 (A) (A) (A) (A) (A) (A) (A) (A) (A) (A) (A)
       Virtual   (A) (A) (A) (A) (A) (A) (A) (A) (A) (A) (A) (A)
                 (A) (A) (A) (A) (A) (A) (A) (A) (A) (A) (A) (A)
                 (A) (A) (A) (A) (A) (A) (A) (A) (A) (A) (A) (A)
                 (A) (A) (A) (A) (A) (A) (A) (A) (A) (A) (A) (A)
                 (A) (A) (A) (A) (A) (A) (A) (A) (A) (A) (A) (A)
                 (A) (A) (A) (A) (A) (A) (A) (A) (A) (A) (A) (A)
                 (A) (A) (A) (A) (A) (A) (A) (A) (A) (A) (A) (A)
                 (A) (A) (A)
 The electronic state is 1-A.
 Alpha  occ. eigenvalues --  -10.30305 -10.30289 -10.30247 -10.30209 -10.28439
 Alpha  occ. eigenvalues --  -10.28309  -0.90108  -0.83349  -0.80170  -0.71387
 Alpha  occ. eigenvalues --   -0.67056  -0.59909  -0.57073  -0.54247  -0.49493
 Alpha  occ. eigenvalues --   -0.47894  -0.47227  -0.44379  -0.44014  -0.41881
 Alpha  occ. eigenvalues --   -0.41163  -0.31223  -0.28833
 Alpha virt. eigenvalues --    0.07612   0.09704   0.18060   0.19734   0.22337
 Alpha virt. eigenvalues --    0.22395   0.23138   0.23930   0.26232   0.29112
 Alpha virt. eigenvalues --    0.29550   0.32868   0.33697   0.34879   0.37770
 Alpha virt. eigenvalues --    0.45409   0.48844   0.56808   0.58178   0.60582
 Alpha virt. eigenvalues --    0.64799   0.67082   0.67427   0.70224   0.71227
 Alpha virt. eigenvalues --    0.73094   0.75594   0.77308   0.78814   0.83409
 Alpha virt. eigenvalues --    0.84469   0.90583   0.92457   0.95219   0.95899
 Alpha virt. eigenvalues --    0.96568   0.97954   0.98897   1.03599   1.04504
 Alpha virt. eigenvalues --    1.05566   1.07197   1.08323   1.11949   1.17519
 Alpha virt. eigenvalues --    1.22706   1.24880   1.34638   1.39990   1.46858
 Alpha virt. eigenvalues --    1.51105   1.57595   1.62517   1.68950   1.71542
 Alpha virt. eigenvalues --    1.81032   1.86853   1.94287   1.98717   2.00508
 Alpha virt. eigenvalues --    2.05612   2.09930   2.11680   2.13104   2.17531
 Alpha virt. eigenvalues --    2.18788   2.24464   2.27879   2.29785   2.32391
 Alpha virt. eigenvalues --    2.35834   2.37681   2.48935   2.57015   2.66207
 Alpha virt. eigenvalues --    2.67255   2.68095   2.70301   2.75291   2.94657
 Alpha virt. eigenvalues --    3.11127   4.21354   4.32789   4.37801   4.39346
 Alpha virt. eigenvalues --    4.55468   4.65497
          Condensed to atoms (all electrons):
               1          2          3          4          5          6
     1  C    5.119318   0.374461   0.378575   0.203668  -0.012450  -0.012092
     2  H    0.374461   0.533844  -0.034879  -0.008930  -0.000508   0.000280
     3  H    0.378575  -0.034879   0.534938  -0.018198   0.001015  -0.001473
     4  C    0.203668  -0.008930  -0.018198   5.103292   0.386107   0.380468
     5  H   -0.012450  -0.000508   0.001015   0.386107   0.523126  -0.034489
     6  H   -0.012092   0.000280  -0.001473   0.380468  -0.034489   0.536743
     7  C   -0.018653   0.000933  -0.004789   0.436520  -0.034917  -0.037364
     8  H    0.001366  -0.000027   0.000305  -0.036364   0.003654  -0.006546
     9  H    0.001203  -0.000031   0.000010  -0.034877  -0.006823   0.003786
    10  C   -0.030906   0.000459   0.003661  -0.024275   0.001391   0.001328
    11  H    0.003581  -0.000053   0.005163  -0.006214  -0.000001   0.000552
    12  H    0.000538  -0.000008  -0.000052   0.001510  -0.000045  -0.000041
    13  C    0.470688  -0.029879  -0.033872  -0.017504  -0.002563   0.000777
    14  H   -0.051105  -0.004995   0.003807   0.001440   0.000135  -0.000035
    15  C   -0.051827   0.004592  -0.009310  -0.027418   0.001066   0.000506
    16  H    0.005250  -0.000122  -0.000032  -0.000100   0.000010   0.000004
               7          8          9         10         11         12
     1  C   -0.018653   0.001366   0.001203  -0.030906   0.003581   0.000538
     2  H    0.000933  -0.000027  -0.000031   0.000459  -0.000053  -0.000008
     3  H   -0.004789   0.000305   0.000010   0.003661   0.005163  -0.000052
     4  C    0.436520  -0.036364  -0.034877  -0.024275  -0.006214   0.001510
     5  H   -0.034917   0.003654  -0.006823   0.001391  -0.000001  -0.000045
     6  H   -0.037364  -0.006546   0.003786   0.001328   0.000552  -0.000041
     7  C    5.091714   0.380090   0.386376   0.223850  -0.024420  -0.013294
     8  H    0.380090   0.539708  -0.034274  -0.017495  -0.002256   0.000163
     9  H    0.386376  -0.034274   0.529459  -0.018080   0.001675  -0.000874
    10  C    0.223850  -0.017495  -0.018080   5.114936   0.379325   0.373598
    11  H   -0.024420  -0.002256   0.001675   0.379325   0.540719  -0.034685
    12  H   -0.013294   0.000163  -0.000874   0.373598  -0.034685   0.539466
    13  C   -0.023284   0.000503   0.000976  -0.051139  -0.009368   0.004788
    14  H   -0.000087   0.000005   0.000008   0.005269  -0.000041  -0.000116
    15  C   -0.026934   0.001290  -0.003450   0.463857  -0.033004  -0.030235
    16  H    0.001473  -0.000051   0.000275  -0.050834   0.003836  -0.005259
              13         14         15         16
     1  C    0.470688  -0.051105  -0.051827   0.005250
     2  H   -0.029879  -0.004995   0.004592  -0.000122
     3  H   -0.033872   0.003807  -0.009310  -0.000032
     4  C   -0.017504   0.001440  -0.027418  -0.000100
     5  H   -0.002563   0.000135   0.001066   0.000010
     6  H    0.000777  -0.000035   0.000506   0.000004
     7  C   -0.023284  -0.000087  -0.026934   0.001473
     8  H    0.000503   0.000005   0.001290  -0.000051
     9  H    0.000976   0.000008  -0.003450   0.000275
    10  C   -0.051139   0.005269   0.463857  -0.050834
    11  H   -0.009368  -0.000041  -0.033004   0.003836
    12  H    0.004788  -0.000116  -0.030235  -0.005259
    13  C    4.835778   0.381278   0.632363  -0.040413
    14  H    0.381278   0.557848  -0.041192  -0.006600
    15  C    0.632363  -0.041192   4.861161   0.381809
    16  H   -0.040413  -0.006600   0.381809   0.557020
 Mulliken charges:
               1
     1  C   -0.381614
     2  H    0.164862
     3  H    0.175131
     4  C   -0.339127
     5  H    0.175293
     6  H    0.167594
     7  C   -0.337214
     8  H    0.169928
     9  H    0.174643
    10  C   -0.374946
    11  H    0.175191
    12  H    0.164548
    13  C   -0.119128
    14  H    0.154379
    15  C   -0.123275
    16  H    0.153735
 Sum of Mulliken charges =  -0.00000
 Mulliken charges with hydrogens summed into heavy atoms:
               1
     1  C   -0.041621
     4  C    0.003760
     7  C    0.007357
    10  C   -0.035208
    13  C    0.035252
    15  C    0.030460
 APT charges:
               1
     1  C   -0.926112
     2  H    0.551315
     3  H    0.363118
     4  C   -0.950378
     5  H    0.444237
     6  H    0.501968
     7  C   -0.956498
     8  H    0.507214
     9  H    0.436733
    10  C   -0.919011
    11  H    0.365503
    12  H    0.540911
    13  C   -0.505066
    14  H    0.527428
    15  C   -0.506357
    16  H    0.524995
 Sum of APT charges =  -0.00000
 APT charges with hydrogens summed into heavy atoms:
               1
     1  C   -0.011678
     4  C   -0.004173
     7  C   -0.012552
    10  C   -0.012597
    13  C    0.022362
    15  C    0.018638
 Electronic spatial extent (au):  <R**2>=            597.5994
 Charge=             -0.0000 electrons
 Dipole moment (field-independent basis, Debye):
    X=              0.5238    Y=             -0.0129    Z=             -0.0393  Tot=              0.5254
 Quadrupole moment (field-independent basis, Debye-Ang):
   XX=            -38.9879   YY=            -35.8729   ZZ=            -36.8472
   XY=              0.5363   XZ=              1.9565   YZ=             -0.2600
 Traceless Quadrupole moment (field-independent basis, Debye-Ang):
   XX=             -1.7519   YY=              1.3631   ZZ=              0.3888
   XY=              0.5363   XZ=              1.9565   YZ=             -0.2600
 Octapole moment (field-independent basis, Debye-Ang**2):
  XXX=              2.1792  YYY=              0.1082  ZZZ=              0.5612  XYY=             -0.3531
  XXY=             -0.4229  XXZ=             -2.6260  XZZ=              1.0706  YZZ=             -0.2516
  YYZ=             -1.4116  XYZ=              0.2107
 Hexadecapole moment (field-independent basis, Debye-Ang**3):
 XXXX=           -395.8395 YYYY=           -309.4973 ZZZZ=            -99.6292 XXXY=              2.7051
 XXXZ=             15.9851 YYYX=              2.2825 YYYZ=             -1.1470 ZZZX=              0.7795
 ZZZY=             -0.3025 XXYY=           -116.2203 XXZZ=            -78.5790 YYZZ=            -70.5914
 XXYZ=             -0.8210 YYXZ=              3.7630 ZZXY=             -0.2854
 N-N= 2.260165085379D+02 E-N=-9.939261227143D+02  KE= 2.318676147398D+02
  Exact polarizability:   0.000   0.000   0.000   0.000   0.000   0.000
 Approx polarizability:  89.085   0.458  87.542   2.638  -0.836  56.893
 Calling FoFJK, ICntrl=    100147 FMM=F ISym2X=0 I1Cent= 0 IOpClX= 0 NMat=1 NMatS=1 NMatT=0.
 ***** Axes restored to original set *****
 -------------------------------------------------------------------
 Center     Atomic                   Forces (Hartrees/Bohr)
 Number     Number              X              Y              Z
 -------------------------------------------------------------------
      1        6           0.038493032   -0.009309283    0.013320013
      2        1          -0.000001114    0.000000547   -0.000000813
      3        1          -0.000014479    0.000010395    0.000002187
      4        6          -0.038460100    0.009315083   -0.013357865
      5        1          -0.000021376   -0.000007304   -0.000000260
      6        1           0.000006531   -0.000003241   -0.000001084
      7        6          -0.033497948   -0.017618096   -0.014547160
      8        1           0.000003039    0.000009366   -0.000001657
      9        1           0.000006338    0.000000821    0.000003731
     10        6           0.033507234    0.017640294    0.014564038
     11        1          -0.000009032   -0.000000763    0.000007480
     12        1          -0.000003331   -0.000001255   -0.000001886
     13        6          -0.000002576   -0.000059588    0.000017867
     14        1           0.000003644   -0.000007053    0.000001539
     15        6          -0.000002300    0.000037476   -0.000015878
     16        1          -0.000007562   -0.000007400    0.000009749
 -------------------------------------------------------------------
 Cartesian Forces:  Max     0.038493032 RMS     0.011885166
 FormGI is forming the generalized inverse of G from B-inverse, IUseBI=4.

 GradGradGradGradGradGradGradGradGradGradGradGradGradGradGradGradGradGrad
 Berny optimization.
 Internal  Forces:  Max     0.041171866 RMS     0.006131622
 Search for a saddle point.
 Step number   1 out of a maximum of   99
 All quantities printed in internal units (Hartrees-Bohrs-Radians)
 Swapping is turned off.
 Second derivative matrix not updated -- analytic derivatives used.
 ITU=  0
     Eigenvalues ---   -0.04911   0.00080   0.00413   0.00942   0.01354
     Eigenvalues ---    0.01537   0.01784   0.02550   0.02969   0.03214
     Eigenvalues ---    0.03502   0.03729   0.04461   0.05176   0.05216
     Eigenvalues ---    0.05515   0.05718   0.05808   0.05951   0.06169
     Eigenvalues ---    0.07195   0.07738   0.08435   0.12072   0.12280
     Eigenvalues ---    0.14085   0.16909   0.17656   0.33805   0.35293
     Eigenvalues ---    0.35774   0.35851   0.35949   0.36095   0.36152
     Eigenvalues ---    0.36273   0.36313   0.36484   0.36770   0.37918
     Eigenvalues ---    0.38531   0.54801
 Eigenvectors required to have negative eigenvalues:
                          R3        R10       D19       D13       D12
   1                    0.63903   0.56264  -0.16034  -0.15545  -0.15265
                          D23       D36       D37       R7        A4
   1                    0.14514   0.14087   0.14046  -0.13922  -0.10648
 RFO step:  Lambda0=3.071743481D-02 Lambda=-1.17963308D-02.
 Linear search not attempted -- option 19 set.
 Maximum step size (   0.300) exceeded in Quadratic search.
    -- Step size scaled by   0.607
 Iteration  1 RMS(Cart)=  0.03144817 RMS(Int)=  0.00202167
 Iteration  2 RMS(Cart)=  0.00161081 RMS(Int)=  0.00117510
 Iteration  3 RMS(Cart)=  0.00000141 RMS(Int)=  0.00117510
 Iteration  4 RMS(Cart)=  0.00000000 RMS(Int)=  0.00117510
 Variable       Old X    -DE/DX   Delta X   Delta X   Delta X     New X
                                 (Linear)    (Quad)   (Total)
    R1        2.05483   0.00000   0.00000  -0.00157  -0.00157   2.05326
    R2        2.05611  -0.00001   0.00000  -0.00440  -0.00440   2.05171
    R3        4.07717  -0.04117   0.00000   0.16452   0.16433   4.24150
    R4        2.69914  -0.00067   0.00000  -0.04858  -0.04848   2.65066
    R5        2.05211  -0.00000   0.00000  -0.00337  -0.00337   2.04874
    R6        2.05494   0.00000   0.00000  -0.00254  -0.00254   2.05240
    R7        2.73766   0.00155   0.00000  -0.05935  -0.05973   2.67793
    R8        2.05805  -0.00000   0.00000  -0.00263  -0.00263   2.05542
    R9        2.05512   0.00000   0.00000  -0.00312  -0.00312   2.05200
   R10        3.77945  -0.04010   0.00000   0.11372   0.11364   3.89309
   R11        2.05916  -0.00001   0.00000  -0.00417  -0.00417   2.05499
   R12        2.05747   0.00000   0.00000  -0.00160  -0.00160   2.05587
   R13        2.71339  -0.00092   0.00000  -0.04737  -0.04706   2.66633
   R14        2.05619  -0.00000   0.00000   0.00024   0.00024   2.05643
   R15        2.57529  -0.00162   0.00000   0.02637   0.02676   2.60205
   R16        2.05531   0.00001   0.00000   0.00010   0.00010   2.05541
    A1        1.97534  -0.00003   0.00000   0.02194   0.01886   1.99420
    A2        1.85407   0.00088   0.00000  -0.00849  -0.00819   1.84588
    A3        2.06217  -0.00042   0.00000   0.02106   0.01968   2.08185
    A4        1.62594  -0.00042   0.00000  -0.09106  -0.09017   1.53577
    A5        2.06096   0.00061   0.00000   0.03621   0.03190   2.09286
    A6        1.80038  -0.00063   0.00000  -0.02856  -0.02803   1.77235
    A7        1.70799  -0.00102   0.00000  -0.06440  -0.06339   1.64460
    A8        1.72096  -0.00078   0.00000  -0.06325  -0.06254   1.65842
    A9        1.88642   0.00237   0.00000  -0.00740  -0.00752   1.87890
   A10        1.98096   0.00028   0.00000   0.02526   0.02021   2.00117
   A11        2.04978   0.00019   0.00000   0.03455   0.03205   2.08182
   A12        2.04482  -0.00090   0.00000   0.02775   0.02580   2.07062
   A13        2.02084  -0.00076   0.00000   0.02718   0.02594   2.04677
   A14        2.02603   0.00005   0.00000   0.03178   0.03042   2.05646
   A15        1.93170   0.00200   0.00000   0.00092   0.00078   1.93249
   A16        1.95920   0.00025   0.00000   0.02547   0.02155   1.98075
   A17        1.73317  -0.00079   0.00000  -0.06554  -0.06498   1.66820
   A18        1.74763  -0.00069   0.00000  -0.05063  -0.05014   1.69749
   A19        1.68593  -0.00036   0.00000  -0.07181  -0.07126   1.61467
   A20        1.84367   0.00089   0.00000  -0.02184  -0.02174   1.82193
   A21        1.84227  -0.00076   0.00000  -0.01662  -0.01617   1.82610
   A22        1.95455  -0.00006   0.00000   0.02170   0.01898   1.97352
   A23        2.04239   0.00053   0.00000   0.03393   0.03149   2.07388
   A24        2.04072  -0.00026   0.00000   0.02167   0.02060   2.06132
   A25        2.07294   0.00067   0.00000  -0.00250  -0.00238   2.07055
   A26        2.11266  -0.00132   0.00000   0.00932   0.00874   2.12140
   A27        2.08343   0.00052   0.00000  -0.01113  -0.01096   2.07247
   A28        2.10633  -0.00163   0.00000   0.00500   0.00463   2.11096
   A29        2.07407   0.00082   0.00000  -0.00096  -0.00103   2.07304
   A30        2.08511   0.00066   0.00000  -0.00996  -0.00996   2.07515
    D1        0.85755   0.00003   0.00000   0.00742   0.00774   0.86529
    D2       -1.15554   0.00016   0.00000   0.01044   0.00947  -1.14608
    D3        2.99227   0.00063   0.00000   0.01270   0.01209   3.00436
    D4        2.86911   0.00002   0.00000  -0.00269  -0.00255   2.86655
    D5        0.85602   0.00015   0.00000   0.00033  -0.00083   0.85518
    D6       -1.27936   0.00062   0.00000   0.00260   0.00179  -1.27757
    D7       -1.32304   0.00041   0.00000   0.00214   0.00326  -1.31978
    D8        2.94705   0.00053   0.00000   0.00516   0.00498   2.95203
    D9        0.81168   0.00101   0.00000   0.00742   0.00760   0.81928
   D10       -0.03980   0.00015   0.00000  -0.02564  -0.02504  -0.06484
   D11       -3.00021   0.00089   0.00000   0.00287   0.00333  -2.99688
   D12       -2.52393  -0.00009   0.00000  -0.15781  -0.15893  -2.68286
   D13        0.79883   0.00066   0.00000  -0.12930  -0.13055   0.66828
   D14        1.99846   0.00058   0.00000  -0.04556  -0.04532   1.95314
   D15       -0.96196   0.00132   0.00000  -0.01705  -0.01694  -0.97890
   D16        2.00825   0.00007   0.00000  -0.06615  -0.06669   1.94156
   D17       -1.92204  -0.00037   0.00000   0.04384   0.04450  -1.87754
   D18        0.05386   0.00018   0.00000  -0.00034  -0.00041   0.05345
   D19       -2.36605   0.00048   0.00000  -0.13296  -0.13435  -2.50040
   D20       -0.01315   0.00004   0.00000  -0.02297  -0.02316  -0.03631
   D21        1.96276   0.00058   0.00000  -0.06715  -0.06808   1.89468
   D22        0.08585  -0.00004   0.00000   0.00266   0.00277   0.08862
   D23        2.43875  -0.00048   0.00000   0.11265   0.11396   2.55271
   D24       -1.86853   0.00006   0.00000   0.06847   0.06905  -1.79948
   D25        1.18980  -0.00060   0.00000  -0.00691  -0.00651   1.18329
   D26       -3.08502  -0.00057   0.00000  -0.01541  -0.01474  -3.09975
   D27       -0.91259  -0.00080   0.00000  -0.01054  -0.01036  -0.92295
   D28       -0.94312  -0.00015   0.00000  -0.00264  -0.00205  -0.94517
   D29        1.06525  -0.00012   0.00000  -0.01113  -0.01027   1.05497
   D30       -3.04551  -0.00036   0.00000  -0.00626  -0.00589  -3.05140
   D31       -2.94638  -0.00002   0.00000   0.00180   0.00122  -2.94517
   D32       -0.93802   0.00002   0.00000  -0.00669  -0.00701  -0.94503
   D33        1.23441  -0.00022   0.00000  -0.00182  -0.00263   1.23178
   D34        1.00807  -0.00130   0.00000   0.02184   0.02190   1.02997
   D35       -1.93158  -0.00057   0.00000   0.05639   0.05632  -1.87527
   D36       -0.84215  -0.00063   0.00000   0.10366   0.10469  -0.73746
   D37        2.50138   0.00010   0.00000   0.13821   0.13911   2.64049
   D38        3.05138  -0.00087   0.00000  -0.00510  -0.00551   3.04586
   D39        0.11172  -0.00014   0.00000   0.02945   0.02890   0.14062
   D40        0.02663  -0.00001   0.00000   0.00500   0.00499   0.03162
   D41        2.96503  -0.00073   0.00000  -0.02872  -0.02845   2.93658
   D42       -2.93271   0.00073   0.00000   0.03278   0.03251  -2.90020
   D43        0.00568   0.00000   0.00000  -0.00094  -0.00092   0.00476
         Item               Value     Threshold  Converged?
 Maximum Force            0.041172     0.000450     NO 
 RMS     Force            0.006132     0.000300     NO 
 Maximum Displacement     0.097319     0.001800     NO 
 RMS     Displacement     0.031253     0.001200     NO 
 Predicted change in Energy= 9.733429D-03
 GradGradGradGradGradGradGradGradGradGradGradGradGradGradGradGradGradGrad

                          Input orientation:                          
 ---------------------------------------------------------------------
 Center     Atomic      Atomic             Coordinates (Angstroms)
 Number     Number       Type             X           Y           Z
 ---------------------------------------------------------------------
      1          6           0       -0.630723    1.379108   -0.482820
      2          1           0       -0.743624    2.450153   -0.338986
      3          1           0       -0.306787    1.094526   -1.479245
      4          6           0        1.433143    0.880446    0.244915
      5          1           0        1.314403    1.403869    1.186881
      6          1           0        1.945601    1.447199   -0.526940
      7          6           0        1.558564   -0.531093    0.247397
      8          1           0        2.235846   -0.972538   -0.480245
      9          1           0        1.565172   -1.037692    1.207830
     10          6           0       -0.144546   -1.415601   -0.501750
     11          1           0        0.039122   -1.032502   -1.502778
     12          1           0        0.043788   -2.483382   -0.412640
     13          6           0       -1.416244    0.498510    0.275455
     14          1           0       -2.077429    0.911467    1.034739
     15          6           0       -1.197220   -0.860771    0.256445
     16          1           0       -1.693947   -1.483608    0.996971
 ---------------------------------------------------------------------
                    Distance matrix (angstroms):
                    1          2          3          4          5
     1  C    0.000000
     2  H    1.086541   0.000000
     3  H    1.085718   1.824484   0.000000
     4  C    2.244506   2.746495   2.458844   0.000000
     5  H    2.563598   2.767391   3.135630   1.084146   0.000000
     6  H    2.577602   2.876313   2.470731   1.086085   1.826875
     7  C    2.995842   3.812052   3.017194   1.417102   2.164792
     8  H    3.707758   4.540045   3.425746   2.145632   3.045601
     9  H    3.677115   4.459623   3.907806   2.150323   2.454495
    10  C    2.836746   3.915283   2.698621   2.884171   3.595751
    11  H    2.702752   3.754462   2.155099   2.942293   3.846624
    12  H    3.921572   4.996520   3.749930   3.698381   4.391316
    13  C    1.402668   2.153803   2.159885   2.875033   3.017749
    14  H    2.148169   2.456361   3.080390   3.598458   3.430762
    15  C    2.425796   3.394481   2.762005   3.154485   3.507500
    16  H    3.393431   4.261733   3.834401   3.991620   4.174178
                    6          7          8          9         10
     6  H    0.000000
     7  C    2.159405   0.000000
     8  H    2.437529   1.087680   0.000000
     9  H    3.054314   1.085871   1.817594   0.000000
    10  C    3.544711   2.060137   2.421371   2.447165   0.000000
    11  H    3.276558   2.371335   2.423791   3.110667   1.087454
    12  H    4.368000   2.557661   2.663145   2.651519   1.087918
    13  C    3.584111   3.148072   4.009093   3.481103   2.425919
    14  H    4.348634   3.990154   4.944592   4.134939   3.392946
    15  C    3.977151   2.775448   3.512996   2.926985   1.410963
    16  H    4.915103   3.471019   4.229259   3.296234   2.156718
                   11         12         13         14         15
    11  H    0.000000
    12  H    1.814794   0.000000
    13  C    2.761195   3.390700   0.000000
    14  H    3.833770   4.256697   1.088214   0.000000
    15  C    2.157057   2.149568   1.376945   2.126343   0.000000
    16  H    3.075024   2.450770   2.127556   2.425874   1.087678
                   16
    16  H    0.000000
 Stoichiometry    C6H10
 Framework group  C1[X(C6H10)]
 Deg. of freedom    42
 Full point group                 C1      NOp   1
 Largest Abelian subgroup         C1      NOp   1
 Largest concise Abelian subgroup C1      NOp   1
                         Standard orientation:                         
 ---------------------------------------------------------------------
 Center     Atomic      Atomic             Coordinates (Angstroms)
 Number     Number       Type             X           Y           Z
 ---------------------------------------------------------------------
      1          6           0       -0.666236   -1.364394    0.473405
      2          1           0       -0.801947   -2.432558    0.327873
      3          1           0       -0.347269   -1.087423    1.473571
      4          6           0        1.416663   -0.912961   -0.230547
      5          1           0        1.296744   -1.433410   -1.174011
      6          1           0        1.907187   -1.491385    0.546881
      7          6           0        1.574345    0.495340   -0.231046
      8          1           0        2.253195    0.921088    0.504447
      9          1           0        1.603494    1.001781   -1.191142
     10          6           0       -0.116535    1.418465    0.498974
     11          1           0        0.046891    1.031135    1.501881
     12          1           0        0.097169    2.481672    0.412436
     13          6           0       -1.422713   -0.465964   -0.293435
     14          1           0       -2.084458   -0.863594   -1.060373
     15          6           0       -1.172898    0.887950   -0.271396
     16          1           0       -1.646771    1.522080   -1.017296
 ---------------------------------------------------------------------
 Rotational constants (GHZ):           4.4218045           3.6045815           2.3370840
 Standard basis: 6-31G(d) (6D, 7F)
 There are   110 symmetry adapted cartesian basis functions of A   symmetry.
 There are   110 symmetry adapted basis functions of A   symmetry.
   110 basis functions,   208 primitive gaussians,   110 cartesian basis functions
    23 alpha electrons       23 beta electrons
       nuclear repulsion energy       225.9019582780 Hartrees.
 NAtoms=   16 NActive=   16 NUniq=   16 SFac= 1.00D+00 NAtFMM=   60 NAOKFM=F Big=F
 Integral buffers will be    131072 words long.
 Raffenetti 2 integral format.
 Two-electron integral symmetry is turned on.
 Nuclear repulsion after empirical dispersion term =      225.8929210720 Hartrees.
 One-electron integrals computed using PRISM.
 NBasis=   110 RedAO= T EigKep=  2.22D-03  NBF=   110
 NBsUse=   110 1.00D-06 EigRej= -1.00D+00 NBFU=   110
 Initial guess from the checkpoint file:  "Step2_TS_wB97XD.chk"
 B after Tr=     0.000000   -0.000000   -0.000000
         Rot=    0.999926   -0.000271    0.004386    0.011319 Ang=  -1.39 deg.
 ExpMin= 1.61D-01 ExpMax= 3.05D+03 ExpMxC= 4.57D+02 IAcc=2 IRadAn=         4 AccDes= 0.00D+00
 Harris functional with IExCor= 4639 and IRadAn=       4 diagonalized for initial guess.
 HarFok:  IExCor= 4639 AccDes= 0.00D+00 IRadAn=         4 IDoV= 1 UseB2=F ITyADJ=14
 ICtDFT=  3500011 ScaDFX=  1.000000  1.000000  1.000000  1.000000
 FoFCou: FMM=F IPFlag=           0 FMFlag=      100000 FMFlg1=           0
         NFxFlg=           0 DoJE=T BraDBF=F KetDBF=T FulRan=T
         wScrn=  0.000000 ICntrl=       500 IOpCl=  0 I1Cent=   200000004 NGrid=           0
         NMat0=    1 NMatS0=      1 NMatT0=    0 NMatD0=    1 NMtDS0=    0 NMtDT0=    0
 Petite list used in FoFCou.
 Requested convergence on RMS density matrix=1.00D-08 within 128 cycles.
 Requested convergence on MAX density matrix=1.00D-06.
 Requested convergence on             energy=1.00D-06.
 No special actions if energy rises.
 Integral accuracy reduced to 1.0D-05 until final iterations.
 Initial convergence to 1.0D-05 achieved.  Increase integral accuracy.
 SCF Done:  E(RwB97XD) =  -234.461623751     A.U. after   15 cycles
            NFock= 15  Conv=0.50D-08     -V/T= 2.0106
 Calling FoFJK, ICntrl=      2127 FMM=F ISym2X=0 I1Cent= 0 IOpClX= 0 NMat=1 NMatS=1 NMatT=0.
 ***** Axes restored to original set *****
 -------------------------------------------------------------------
 Center     Atomic                   Forces (Hartrees/Bohr)
 Number     Number              X              Y              Z
 -------------------------------------------------------------------
      1        6           0.023986850   -0.004982866    0.008088638
      2        1          -0.000122769    0.000137905   -0.000278345
      3        1          -0.000740817    0.000023415   -0.000368239
      4        6          -0.022815020    0.006796906   -0.008173589
      5        1           0.000232621   -0.000238532    0.000398516
      6        1           0.000409435    0.000109334    0.000040169
      7        6          -0.019117920   -0.011308410   -0.008435814
      8        1           0.000528652    0.000092376    0.000217507
      9        1           0.000425510    0.000331587    0.000319248
     10        6           0.020077250    0.009931178    0.008514406
     11        1          -0.000869220   -0.000282884   -0.000262650
     12        1          -0.000119930   -0.000135107   -0.000291788
     13        6          -0.001212186    0.001123458    0.000428940
     14        1          -0.000033781    0.000074778   -0.000076261
     15        6          -0.000700193   -0.001598150   -0.000130118
     16        1           0.000071517   -0.000074986    0.000009379
 -------------------------------------------------------------------
 Cartesian Forces:  Max     0.023986850 RMS     0.007139839

 GradGradGradGradGradGradGradGradGradGradGradGradGradGradGradGradGradGrad
 Berny optimization.
 FormGI is forming the generalized inverse of G from B-inverse, IUseBI=4.
 Internal  Forces:  Max     0.023620261 RMS     0.003451179
 Search for a saddle point.
 Step number   2 out of a maximum of   99
 All quantities printed in internal units (Hartrees-Bohrs-Radians)
 Swapping is turned off.
 Update second derivatives using D2CorX and points    1    2
 ITU=  0  0
     Eigenvalues ---   -0.05468   0.00079   0.00410   0.00983   0.01354
     Eigenvalues ---    0.01581   0.01785   0.02549   0.02967   0.03201
     Eigenvalues ---    0.03499   0.03721   0.04483   0.05165   0.05206
     Eigenvalues ---    0.05505   0.05700   0.05796   0.05941   0.06154
     Eigenvalues ---    0.07195   0.07722   0.08432   0.12059   0.12274
     Eigenvalues ---    0.14036   0.16855   0.17648   0.33786   0.35292
     Eigenvalues ---    0.35774   0.35851   0.35948   0.36095   0.36152
     Eigenvalues ---    0.36273   0.36313   0.36484   0.36769   0.37907
     Eigenvalues ---    0.38524   0.54640
 Eigenvectors required to have negative eigenvalues:
                          R3        R10       D19       D13       D23
   1                    0.62225   0.57239  -0.16989  -0.15796   0.15479
                          D12       D36       D37       R7        A4
   1                   -0.15192   0.14495   0.14155  -0.14030  -0.10574
 RFO step:  Lambda0=1.225203680D-02 Lambda=-3.81362407D-03.
 Linear search not attempted -- option 19 set.
 Maximum step size (   0.300) exceeded in Quadratic search.
    -- Step size scaled by   0.855
 Iteration  1 RMS(Cart)=  0.03041701 RMS(Int)=  0.00178597
 Iteration  2 RMS(Cart)=  0.00161546 RMS(Int)=  0.00101239
 Iteration  3 RMS(Cart)=  0.00000124 RMS(Int)=  0.00101239
 Iteration  4 RMS(Cart)=  0.00000000 RMS(Int)=  0.00101239
 Variable       Old X    -DE/DX   Delta X   Delta X   Delta X     New X
                                 (Linear)    (Quad)   (Total)
    R1        2.05326   0.00011   0.00000  -0.00026  -0.00026   2.05301
    R2        2.05171   0.00011   0.00000  -0.00277  -0.00277   2.04894
    R3        4.24150  -0.02362   0.00000   0.08604   0.08604   4.32754
    R4        2.65066   0.00067   0.00000  -0.04077  -0.04057   2.61008
    R5        2.04874   0.00021   0.00000  -0.00166  -0.00166   2.04708
    R6        2.05240   0.00022   0.00000  -0.00099  -0.00099   2.05142
    R7        2.67793   0.00217   0.00000  -0.05616  -0.05643   2.62150
    R8        2.05542   0.00015   0.00000  -0.00296  -0.00296   2.05245
    R9        2.05200   0.00013   0.00000  -0.00332  -0.00332   2.04868
   R10        3.89309  -0.02189   0.00000   0.20431   0.20413   4.09723
   R11        2.05499  -0.00001   0.00000  -0.00477  -0.00477   2.05022
   R12        2.05587   0.00009   0.00000  -0.00190  -0.00190   2.05397
   R13        2.66633   0.00013   0.00000  -0.04901  -0.04892   2.61741
   R14        2.05643  -0.00000   0.00000  -0.00010  -0.00010   2.05632
   R15        2.60205   0.00088   0.00000   0.03340   0.03367   2.63572
   R16        2.05541   0.00002   0.00000   0.00035   0.00035   2.05576
    A1        1.99420  -0.00008   0.00000   0.00892   0.00724   2.00145
    A2        1.84588   0.00056   0.00000  -0.01061  -0.01059   1.83529
    A3        2.08185  -0.00029   0.00000   0.01292   0.01226   2.09410
    A4        1.53577   0.00019   0.00000  -0.06622  -0.06588   1.46989
    A5        2.09286   0.00013   0.00000   0.02109   0.01924   2.11209
    A6        1.77235  -0.00021   0.00000  -0.01053  -0.01013   1.76222
    A7        1.64460  -0.00045   0.00000  -0.05551  -0.05498   1.58962
    A8        1.65842  -0.00041   0.00000  -0.05667  -0.05612   1.60229
    A9        1.87890   0.00154   0.00000   0.00607   0.00584   1.88473
   A10        2.00117   0.00021   0.00000   0.01436   0.01079   2.01196
   A11        2.08182  -0.00006   0.00000   0.01966   0.01832   2.10014
   A12        2.07062  -0.00054   0.00000   0.02085   0.01981   2.09043
   A13        2.04677  -0.00056   0.00000   0.03206   0.02988   2.07666
   A14        2.05646  -0.00014   0.00000   0.02852   0.02613   2.08258
   A15        1.93249   0.00106   0.00000  -0.01200  -0.01203   1.92046
   A16        1.98075   0.00014   0.00000   0.02291   0.01840   1.99915
   A17        1.66820  -0.00014   0.00000  -0.06263  -0.06176   1.60644
   A18        1.69749  -0.00009   0.00000  -0.05645  -0.05559   1.64190
   A19        1.61467   0.00030   0.00000  -0.07663  -0.07616   1.53851
   A20        1.82193   0.00071   0.00000  -0.01630  -0.01581   1.80612
   A21        1.82610  -0.00042   0.00000  -0.02771  -0.02737   1.79872
   A22        1.97352  -0.00011   0.00000   0.01921   0.01637   1.98990
   A23        2.07388  -0.00004   0.00000   0.02678   0.02327   2.09715
   A24        2.06132  -0.00019   0.00000   0.02642   0.02499   2.08631
   A25        2.07055   0.00031   0.00000  -0.00187  -0.00196   2.06860
   A26        2.12140  -0.00081   0.00000   0.00631   0.00602   2.12743
   A27        2.07247   0.00038   0.00000  -0.01005  -0.01007   2.06240
   A28        2.11096  -0.00101   0.00000   0.00471   0.00430   2.11526
   A29        2.07304   0.00043   0.00000  -0.00088  -0.00093   2.07212
   A30        2.07515   0.00044   0.00000  -0.01060  -0.01060   2.06455
    D1        0.86529   0.00022   0.00000   0.02209   0.02251   0.88780
    D2       -1.14608   0.00011   0.00000   0.02187   0.02094  -1.12513
    D3        3.00436   0.00041   0.00000   0.02168   0.02127   3.02563
    D4        2.86655   0.00023   0.00000   0.01093   0.01153   2.87808
    D5        0.85518   0.00013   0.00000   0.01070   0.00996   0.86515
    D6       -1.27757   0.00043   0.00000   0.01052   0.01029  -1.26728
    D7       -1.31978   0.00039   0.00000   0.01739   0.01822  -1.30157
    D8        2.95203   0.00028   0.00000   0.01716   0.01665   2.96868
    D9        0.81928   0.00058   0.00000   0.01698   0.01698   0.83626
   D10       -0.06484  -0.00016   0.00000  -0.04472  -0.04456  -0.10940
   D11       -2.99688   0.00040   0.00000  -0.01250  -0.01239  -3.00927
   D12       -2.68286   0.00038   0.00000  -0.13831  -0.13874  -2.82160
   D13        0.66828   0.00093   0.00000  -0.10609  -0.10657   0.56171
   D14        1.95314   0.00025   0.00000  -0.05915  -0.05913   1.89401
   D15       -0.97890   0.00081   0.00000  -0.02693  -0.02697  -1.00587
   D16        1.94156   0.00028   0.00000  -0.08007  -0.08073   1.86083
   D17       -1.87754  -0.00049   0.00000   0.05228   0.05304  -1.82450
   D18        0.05345   0.00006   0.00000  -0.01134  -0.01130   0.04215
   D19       -2.50040   0.00072   0.00000  -0.13557  -0.13664  -2.63704
   D20       -0.03631  -0.00005   0.00000  -0.00322  -0.00288  -0.03919
   D21        1.89468   0.00050   0.00000  -0.06684  -0.06722   1.82747
   D22        0.08862   0.00003   0.00000  -0.02401  -0.02439   0.06424
   D23        2.55271  -0.00074   0.00000   0.10833   0.10938   2.66209
   D24       -1.79948  -0.00018   0.00000   0.04471   0.04504  -1.75445
   D25        1.18329  -0.00049   0.00000   0.00061   0.00114   1.18444
   D26       -3.09975  -0.00039   0.00000  -0.00517  -0.00471  -3.10446
   D27       -0.92295  -0.00047   0.00000   0.00335   0.00315  -0.91980
   D28       -0.94517  -0.00017   0.00000   0.00049   0.00126  -0.94390
   D29        1.05497  -0.00007   0.00000  -0.00529  -0.00459   1.05039
   D30       -3.05140  -0.00014   0.00000   0.00323   0.00327  -3.04814
   D31       -2.94517  -0.00027   0.00000  -0.00198  -0.00213  -2.94730
   D32       -0.94503  -0.00017   0.00000  -0.00776  -0.00798  -0.95301
   D33        1.23178  -0.00024   0.00000   0.00076  -0.00013   1.23165
   D34        1.02997  -0.00094   0.00000   0.00764   0.00753   1.03750
   D35       -1.87527  -0.00034   0.00000   0.04187   0.04172  -1.83355
   D36       -0.73746  -0.00103   0.00000   0.10666   0.10756  -0.62989
   D37        2.64049  -0.00043   0.00000   0.14088   0.14176   2.78225
   D38        3.04586  -0.00045   0.00000  -0.01832  -0.01891   3.02695
   D39        0.14062   0.00015   0.00000   0.01590   0.01528   0.15590
   D40        0.03162  -0.00007   0.00000  -0.00668  -0.00672   0.02490
   D41        2.93658  -0.00067   0.00000  -0.03965  -0.03950   2.89708
   D42       -2.90020   0.00050   0.00000   0.02462   0.02440  -2.87580
   D43        0.00476  -0.00011   0.00000  -0.00835  -0.00838  -0.00362
         Item               Value     Threshold  Converged?
 Maximum Force            0.023620     0.000450     NO 
 RMS     Force            0.003451     0.000300     NO 
 Maximum Displacement     0.103163     0.001800     NO 
 RMS     Displacement     0.030464     0.001200     NO 
 Predicted change in Energy= 4.803948D-03
 GradGradGradGradGradGradGradGradGradGradGradGradGradGradGradGradGradGrad

                          Input orientation:                          
 ---------------------------------------------------------------------
 Center     Atomic      Atomic             Coordinates (Angstroms)
 Number     Number       Type             X           Y           Z
 ---------------------------------------------------------------------
      1          6           0       -0.647434    1.370720   -0.494867
      2          1           0       -0.751441    2.444219   -0.364252
      3          1           0       -0.252195    1.068138   -1.458107
      4          6           0        1.455950    0.876333    0.263829
      5          1           0        1.269396    1.408003    1.189028
      6          1           0        1.915693    1.464585   -0.524234
      7          6           0        1.597500   -0.503666    0.265196
      8          1           0        2.219848   -0.969628   -0.493225
      9          1           0        1.556082   -1.040698    1.206040
     10          6           0       -0.194897   -1.434962   -0.522785
     11          1           0        0.053482   -1.012484   -1.490715
     12          1           0        0.013599   -2.498287   -0.437625
     13          6           0       -1.410796    0.505798    0.264668
     14          1           0       -2.031501    0.919573    1.056884
     15          6           0       -1.202412   -0.873151    0.243839
     16          1           0       -1.665757   -1.476404    1.021553
 ---------------------------------------------------------------------
                    Distance matrix (angstroms):
                    1          2          3          4          5
     1  C    0.000000
     2  H    1.086405   0.000000
     3  H    1.084251   1.827392   0.000000
     4  C    2.290036   2.779447   2.433025   0.000000
     5  H    2.551692   2.751401   3.072144   1.083268   0.000000
     6  H    2.565014   2.845854   2.393539   1.085563   1.831985
     7  C    3.021713   3.821486   2.976863   1.387240   2.148394
     8  H    3.701154   4.527642   3.345816   2.136409   3.063734
     9  H    3.682867   4.464877   3.848992   2.138410   2.465485
    10  C    2.842081   3.922106   2.672755   2.947227   3.627246
    11  H    2.676314   3.723656   2.103210   2.934786   3.810279
    12  H    3.925488   5.001903   3.719061   3.736372   4.413856
    13  C    1.381197   2.141907   2.150938   2.890593   2.975205
    14  H    2.127700   2.445961   3.084344   3.576747   3.339453
    15  C    2.426653   3.402659   2.751025   3.182449   3.493835
    16  H    3.382696   4.257665   3.823816   3.981781   4.118613
                    6          7          8          9         10
     6  H    0.000000
     7  C    2.144402   0.000000
     8  H    2.453338   1.086112   0.000000
     9  H    3.065879   1.084116   1.825688   0.000000
    10  C    3.586359   2.168160   2.459350   2.492029   0.000000
    11  H    3.246196   2.392929   2.385364   3.087246   1.084927
    12  H    4.396569   2.642198   2.684664   2.684297   1.086914
    13  C    3.550658   3.173147   3.991598   3.475658   2.421784
    14  H    4.286877   3.977691   4.903660   4.090925   3.378210
    15  C    3.972094   2.824267   3.502061   2.926293   1.385074
    16  H    4.885250   3.488144   4.201107   3.256398   2.133103
                   11         12         13         14         15
    11  H    0.000000
    12  H    1.821592   0.000000
    13  C    2.744205   3.398035   0.000000
    14  H    3.817101   4.254146   1.088159   0.000000
    15  C    2.146011   2.141061   1.394761   2.135952   0.000000
    16  H    3.079366   2.448201   2.137055   2.423989   1.087861
                   16
    16  H    0.000000
 Stoichiometry    C6H10
 Framework group  C1[X(C6H10)]
 Deg. of freedom    42
 Full point group                 C1      NOp   1
 Largest Abelian subgroup         C1      NOp   1
 Largest concise Abelian subgroup C1      NOp   1
                         Standard orientation:                         
 ---------------------------------------------------------------------
 Center     Atomic      Atomic             Coordinates (Angstroms)
 Number     Number       Type             X           Y           Z
 ---------------------------------------------------------------------
      1          6           0       -0.609250   -1.390756    0.483910
      2          1           0       -0.672618   -2.467929    0.357577
      3          1           0       -0.248415   -1.069304    1.454511
      4          6           0        1.493553   -0.827316   -0.226739
      5          1           0        1.348257   -1.370213   -1.152818
      6          1           0        1.954110   -1.394842    0.575912
      7          6           0        1.586985    0.556758   -0.233369
      8          1           0        2.174039    1.048308    0.536947
      9          1           0        1.549887    1.086881   -1.178303
     10          6           0       -0.255439    1.429136    0.505107
     11          1           0       -0.016214    1.020875    1.481407
     12          1           0       -0.082054    2.498617    0.418326
     13          6           0       -1.383476   -0.557186   -0.299316
     14          1           0       -1.969879   -0.996708   -1.103705
     15          6           0       -1.223775    0.828295   -0.282132
     16          1           0       -1.688706    1.410742   -1.074619
 ---------------------------------------------------------------------
 Rotational constants (GHZ):           4.3979370           3.5374139           2.3105544
 Standard basis: 6-31G(d) (6D, 7F)
 There are   110 symmetry adapted cartesian basis functions of A   symmetry.
 There are   110 symmetry adapted basis functions of A   symmetry.
   110 basis functions,   208 primitive gaussians,   110 cartesian basis functions
    23 alpha electrons       23 beta electrons
       nuclear repulsion energy       225.5218378444 Hartrees.
 NAtoms=   16 NActive=   16 NUniq=   16 SFac= 1.00D+00 NAtFMM=   60 NAOKFM=F Big=F
 Integral buffers will be    131072 words long.
 Raffenetti 2 integral format.
 Two-electron integral symmetry is turned on.
 Nuclear repulsion after empirical dispersion term =      225.5127053723 Hartrees.
 One-electron integrals computed using PRISM.
 NBasis=   110 RedAO= T EigKep=  2.22D-03  NBF=   110
 NBsUse=   110 1.00D-06 EigRej= -1.00D+00 NBFU=   110
 Initial guess from the checkpoint file:  "Step2_TS_wB97XD.chk"
 B after Tr=    -0.000000    0.000000   -0.000000
         Rot=    0.999563    0.003067    0.005051   -0.028954 Ang=   3.39 deg.
 ExpMin= 1.61D-01 ExpMax= 3.05D+03 ExpMxC= 4.57D+02 IAcc=2 IRadAn=         4 AccDes= 0.00D+00
 Harris functional with IExCor= 4639 and IRadAn=       4 diagonalized for initial guess.
 HarFok:  IExCor= 4639 AccDes= 0.00D+00 IRadAn=         4 IDoV= 1 UseB2=F ITyADJ=14
 ICtDFT=  3500011 ScaDFX=  1.000000  1.000000  1.000000  1.000000
 FoFCou: FMM=F IPFlag=           0 FMFlag=      100000 FMFlg1=           0
         NFxFlg=           0 DoJE=T BraDBF=F KetDBF=T FulRan=T
         wScrn=  0.000000 ICntrl=       500 IOpCl=  0 I1Cent=   200000004 NGrid=           0
         NMat0=    1 NMatS0=      1 NMatT0=    0 NMatD0=    1 NMtDS0=    0 NMtDT0=    0
 Petite list used in FoFCou.
 Requested convergence on RMS density matrix=1.00D-08 within 128 cycles.
 Requested convergence on MAX density matrix=1.00D-06.
 Requested convergence on             energy=1.00D-06.
 No special actions if energy rises.
 Integral accuracy reduced to 1.0D-05 until final iterations.
 Initial convergence to 1.0D-05 achieved.  Increase integral accuracy.
 SCF Done:  E(RwB97XD) =  -234.457055335     A.U. after   14 cycles
            NFock= 14  Conv=0.69D-08     -V/T= 2.0100
 Calling FoFJK, ICntrl=      2127 FMM=F ISym2X=0 I1Cent= 0 IOpClX= 0 NMat=1 NMatS=1 NMatT=0.
 ***** Axes restored to original set *****
 -------------------------------------------------------------------
 Center     Atomic                   Forces (Hartrees/Bohr)
 Number     Number              X              Y              Z
 -------------------------------------------------------------------
      1        6           0.007762841   -0.000620166    0.002246119
      2        1           0.000136203    0.000124406    0.000046200
      3        1          -0.000913058    0.000041889   -0.000413479
      4        6          -0.007143310    0.003818899   -0.002712894
      5        1           0.000090725   -0.000173328    0.000523739
      6        1           0.000210158    0.000188391   -0.000165315
      7        6          -0.003464565   -0.004188443   -0.002043594
      8        1           0.000187230   -0.000126279   -0.000401314
      9        1          -0.000455525   -0.000125862    0.000413225
     10        6           0.005605775    0.001050143    0.001330762
     11        1          -0.000155679   -0.000098079   -0.000325712
     12        1          -0.000044276   -0.000241043    0.000080043
     13        6          -0.001093774    0.002863714    0.000915181
     14        1          -0.000662226    0.000086132   -0.000497283
     15        6           0.000444743   -0.002400424    0.001401903
     16        1          -0.000505260   -0.000199951   -0.000397581
 -------------------------------------------------------------------
 Cartesian Forces:  Max     0.007762841 RMS     0.002180712

 GradGradGradGradGradGradGradGradGradGradGradGradGradGradGradGradGradGrad
 Berny optimization.
 FormGI is forming the generalized inverse of G from B-inverse, IUseBI=4.
 Internal  Forces:  Max     0.006559197 RMS     0.001063770
 Search for a saddle point.
 Step number   3 out of a maximum of   99
 All quantities printed in internal units (Hartrees-Bohrs-Radians)
 Swapping is turned off.
 Update second derivatives using D2CorX and points    2    3
 ITU=  0  0  0
     Eigenvalues ---   -0.05663   0.00077   0.00363   0.01050   0.01353
     Eigenvalues ---    0.01687   0.01787   0.02547   0.02959   0.03185
     Eigenvalues ---    0.03491   0.03684   0.04465   0.05143   0.05199
     Eigenvalues ---    0.05486   0.05677   0.05765   0.05913   0.06120
     Eigenvalues ---    0.07141   0.07659   0.08418   0.12029   0.12254
     Eigenvalues ---    0.13904   0.16712   0.17627   0.33782   0.35288
     Eigenvalues ---    0.35773   0.35850   0.35946   0.36095   0.36151
     Eigenvalues ---    0.36273   0.36312   0.36483   0.36768   0.37893
     Eigenvalues ---    0.38505   0.54514
 Eigenvectors required to have negative eigenvalues:
                          R3        R10       D19       D23       D13
   1                    0.60934   0.57968  -0.17894   0.16737  -0.15448
                          D36       D12       D37       R7        A19
   1                    0.15269  -0.14312   0.14099  -0.13397  -0.10447
 RFO step:  Lambda0=1.037520794D-03 Lambda=-8.64888344D-04.
 Linear search not attempted -- option 19 set.
 Maximum step size (   0.300) exceeded in Quadratic search.
    -- Step size scaled by   0.866
 Iteration  1 RMS(Cart)=  0.03816747 RMS(Int)=  0.00347171
 Iteration  2 RMS(Cart)=  0.00495192 RMS(Int)=  0.00064650
 Iteration  3 RMS(Cart)=  0.00000540 RMS(Int)=  0.00064649
 Iteration  4 RMS(Cart)=  0.00000000 RMS(Int)=  0.00064649
 Variable       Old X    -DE/DX   Delta X   Delta X   Delta X     New X
                                 (Linear)    (Quad)   (Total)
    R1        2.05301   0.00012   0.00000   0.00159   0.00159   2.05459
    R2        2.04894   0.00002   0.00000   0.00095   0.00095   2.04989
    R3        4.32754  -0.00656   0.00000  -0.14031  -0.14036   4.18718
    R4        2.61008   0.00112   0.00000  -0.00250  -0.00229   2.60780
    R5        2.04708   0.00035   0.00000   0.00183   0.00183   2.04891
    R6        2.05142   0.00031   0.00000   0.00167   0.00167   2.05309
    R7        2.62150   0.00291   0.00000  -0.01465  -0.01483   2.60668
    R8        2.05245   0.00044   0.00000  -0.00213  -0.00213   2.05032
    R9        2.04868   0.00044   0.00000  -0.00193  -0.00193   2.04675
   R10        4.09723  -0.00516   0.00000   0.23280   0.23272   4.32995
   R11        2.05022   0.00022   0.00000  -0.00262  -0.00262   2.04760
   R12        2.05397   0.00023   0.00000  -0.00169  -0.00169   2.05228
   R13        2.61741   0.00152   0.00000  -0.02183  -0.02186   2.59555
   R14        2.05632   0.00005   0.00000  -0.00055  -0.00055   2.05577
   R15        2.63572   0.00357   0.00000   0.01835   0.01853   2.65425
   R16        2.05576   0.00004   0.00000   0.00062   0.00062   2.05638
    A1        2.00145  -0.00002   0.00000  -0.00533  -0.00527   1.99618
    A2        1.83529   0.00023   0.00000  -0.01752  -0.01733   1.81796
    A3        2.09410  -0.00005   0.00000  -0.00534  -0.00554   2.08857
    A4        1.46989   0.00032   0.00000   0.01466   0.01428   1.48416
    A5        2.11209  -0.00010   0.00000   0.00055   0.00031   2.11240
    A6        1.76222  -0.00011   0.00000   0.02689   0.02711   1.78933
    A7        1.58962  -0.00029   0.00000  -0.00376  -0.00342   1.58621
    A8        1.60229  -0.00022   0.00000  -0.01671  -0.01632   1.58597
    A9        1.88473   0.00086   0.00000   0.03264   0.03177   1.91650
   A10        2.01196   0.00016   0.00000   0.00039   0.00026   2.01222
   A11        2.10014  -0.00020   0.00000  -0.00586  -0.00571   2.09444
   A12        2.09043  -0.00012   0.00000  -0.00041  -0.00046   2.08997
   A13        2.07666   0.00001   0.00000   0.02442   0.02245   2.09910
   A14        2.08258  -0.00014   0.00000   0.01573   0.01344   2.09602
   A15        1.92046   0.00048   0.00000  -0.02716  -0.02765   1.89281
   A16        1.99915   0.00015   0.00000   0.01801   0.01536   2.01451
   A17        1.60644  -0.00027   0.00000  -0.03458  -0.03366   1.57278
   A18        1.64190  -0.00025   0.00000  -0.04933  -0.04873   1.59317
   A19        1.53851  -0.00001   0.00000  -0.06333  -0.06327   1.47524
   A20        1.80612   0.00063   0.00000   0.00114   0.00167   1.80779
   A21        1.79872  -0.00057   0.00000  -0.03330  -0.03338   1.76534
   A22        1.98990  -0.00003   0.00000   0.01625   0.01496   2.00486
   A23        2.09715  -0.00002   0.00000   0.01190   0.00922   2.10637
   A24        2.08631   0.00003   0.00000   0.01824   0.01723   2.10354
   A25        2.06860   0.00011   0.00000   0.00225   0.00187   2.07047
   A26        2.12743  -0.00023   0.00000  -0.00072   0.00012   2.12755
   A27        2.06240   0.00011   0.00000  -0.00320  -0.00370   2.05870
   A28        2.11526  -0.00001   0.00000   0.00933   0.00985   2.12512
   A29        2.07212   0.00008   0.00000   0.00043   0.00004   2.07216
   A30        2.06455  -0.00004   0.00000  -0.00474  -0.00512   2.05943
    D1        0.88780   0.00019   0.00000   0.03969   0.03971   0.92752
    D2       -1.12513   0.00005   0.00000   0.04006   0.04006  -1.08507
    D3        3.02563   0.00006   0.00000   0.03936   0.03968   3.06530
    D4        2.87808   0.00026   0.00000   0.03768   0.03752   2.91561
    D5        0.86515   0.00011   0.00000   0.03805   0.03787   0.90302
    D6       -1.26728   0.00012   0.00000   0.03736   0.03749  -1.22979
    D7       -1.30157   0.00020   0.00000   0.04058   0.04087  -1.26070
    D8        2.96868   0.00006   0.00000   0.04095   0.04122   3.00990
    D9        0.83626   0.00007   0.00000   0.04025   0.04083   0.87709
   D10       -0.10940   0.00024   0.00000  -0.02583  -0.02576  -0.13516
   D11       -3.00927   0.00028   0.00000  -0.01739  -0.01721  -3.02648
   D12       -2.82160   0.00071   0.00000   0.00279   0.00289  -2.81871
   D13        0.56171   0.00076   0.00000   0.01123   0.01144   0.57315
   D14        1.89401   0.00042   0.00000  -0.03080  -0.03051   1.86350
   D15       -1.00587   0.00047   0.00000  -0.02236  -0.02196  -1.02783
   D16        1.86083   0.00009   0.00000  -0.09649  -0.09702   1.76381
   D17       -1.82450   0.00018   0.00000   0.02538   0.02585  -1.79865
   D18        0.04215   0.00011   0.00000  -0.04770  -0.04758  -0.00543
   D19       -2.63704   0.00022   0.00000  -0.08203  -0.08267  -2.71971
   D20       -0.03919   0.00030   0.00000   0.03984   0.04020   0.00101
   D21        1.82747   0.00024   0.00000  -0.03323  -0.03322   1.79424
   D22        0.06424  -0.00015   0.00000  -0.09714  -0.09756  -0.03332
   D23        2.66209  -0.00006   0.00000   0.02473   0.02531   2.68740
   D24       -1.75445  -0.00013   0.00000  -0.04834  -0.04811  -1.80256
   D25        1.18444   0.00004   0.00000   0.04601   0.04626   1.23070
   D26       -3.10446   0.00006   0.00000   0.04711   0.04685  -3.05761
   D27       -0.91980   0.00012   0.00000   0.05291   0.05189  -0.86791
   D28       -0.94390   0.00003   0.00000   0.04215   0.04279  -0.90111
   D29        1.05039   0.00004   0.00000   0.04324   0.04337   1.09376
   D30       -3.04814   0.00010   0.00000   0.04904   0.04842  -2.99972
   D31       -2.94730  -0.00009   0.00000   0.03089   0.03151  -2.91579
   D32       -0.95301  -0.00007   0.00000   0.03198   0.03209  -0.92092
   D33        1.23165  -0.00001   0.00000   0.03778   0.03714   1.26879
   D34        1.03750  -0.00059   0.00000  -0.02692  -0.02714   1.01036
   D35       -1.83355  -0.00068   0.00000  -0.04743  -0.04750  -1.88105
   D36       -0.62989  -0.00023   0.00000   0.06533   0.06560  -0.56429
   D37        2.78225  -0.00031   0.00000   0.04482   0.04524   2.82749
   D38        3.02695  -0.00019   0.00000  -0.04035  -0.04085   2.98610
   D39        0.15590  -0.00028   0.00000  -0.06086  -0.06121   0.09469
   D40        0.02490  -0.00015   0.00000  -0.03569  -0.03546  -0.01057
   D41        2.89708  -0.00005   0.00000  -0.01450  -0.01449   2.88259
   D42       -2.87580  -0.00011   0.00000  -0.02800  -0.02770  -2.90350
   D43       -0.00362  -0.00000   0.00000  -0.00681  -0.00673  -0.01035
         Item               Value     Threshold  Converged?
 Maximum Force            0.006559     0.000450     NO 
 RMS     Force            0.001064     0.000300     NO 
 Maximum Displacement     0.107434     0.001800     NO 
 RMS     Displacement     0.040800     0.001200     NO 
 Predicted change in Energy= 2.217729D-05
 GradGradGradGradGradGradGradGradGradGradGradGradGradGradGradGradGradGrad

                          Input orientation:                          
 ---------------------------------------------------------------------
 Center     Atomic      Atomic             Coordinates (Angstroms)
 Number     Number       Type             X           Y           Z
 ---------------------------------------------------------------------
[...]

 ----------------------------------------------------------------------

 Dipole orientation:
     6          0.50979988          2.80301467         -0.87293503
     1          0.00972993          4.79145446         -0.75651841
     1          2.43250684          2.37003280         -0.31297218
     6         -0.53039627          1.23835575          2.97137163
     1         -2.42707655          1.99324651          2.80506420
     1          0.83656048          2.47989812          3.86667790
     6         -0.14682732         -1.33964803          2.97370887
     1          1.52258001         -2.12795733          3.86991450
     1         -1.74154948         -2.61430477          2.80933782
     6          1.30392879         -2.53978173         -0.86907910
     1          3.01824651         -1.56561138         -0.31209600
     1          1.40269816         -4.58744833         -0.74780056
     6         -0.80469283          1.22008139         -2.46360434
     1         -2.46266279          1.94984999         -3.43617269
     6         -0.41444961         -1.40987221         -2.46102734
     1         -1.78968647         -2.59162709         -3.43032320

 Electric dipole moment (dipole orientation):
 (Debye = 10**-18 statcoulomb cm , SI units = C m)
                  (au)            (Debye)         (10**-30 SI)
   Tot        0.157247D+00      0.399683D+00      0.133320D+01
   x          0.000000D+00      0.000000D+00      0.000000D+00
   y          0.000000D+00      0.000000D+00      0.000000D+00
   z          0.157247D+00      0.399683D+00      0.133320D+01

 Dipole polarizability, Alpha (dipole orientation).
 (esu units = cm**3 , SI units = C**2 m**2 J**-1)
 Alpha(0;0):
               (au)            (10**-24 esu)      (10**-40 SI)
   iso        0.681940D+02      0.101053D+02      0.112437D+02
   aniso      0.295947D+02      0.438548D+01      0.487951D+01
   xx         0.516715D+02      0.765693D+01      0.851949D+01
   yx        -0.419682D+01     -0.621905D+00     -0.691963D+00
   yy         0.793406D+02      0.117571D+02      0.130815D+02
   zx         0.774411D+01      0.114756D+01      0.127683D+01
   zy         0.113839D+01      0.168691D+00      0.187695D+00
   zz         0.735697D+02      0.109019D+02      0.121300D+02

 ----------------------------------------------------------------------
 1\1\GINC-NODE31\Freq\RwB97XD\6-31G(d)\C6H10\CHENLEHUI\12-Dec-2025\0\\#
 N Geom=AllCheck Guess=TCheck SCRF=Check GenChk RwB97XD/6-31G(d) Freq\\
 Step2: Final TS Search (Unfrozen) - wB97XD - New Coordinates\\0,1\C,-0
 .6254262809,1.3608931083,-0.4930820565\H,-0.7171314123,2.4367730794,-0
 .370211792\H,-0.2292684131,1.0468210058,-1.4522123041\C,1.4520080056,0
 .8922145143,0.2760797926\H,1.2413302928,1.4001105597,1.210077736\H,1.8
 899871716,1.5101907705,-0.5021488048\C,1.640953684,-0.4739246554,0.259
 8751819\H,2.227227956,-0.9317068512,-0.5313696489\H,1.5790746083,-1.04
 1521632,1.1811232988\C,-0.2343928455,-1.4703856309,-0.5262753018\H,0.0
 577782069,-1.038965102,-1.4771205352\H,-0.0297205847,-2.5331261021,-0.
 4278634074\C,-1.402501232,0.5121009825,0.2617442201\H,-2.024383331,0.9
 332086854,1.0489544532\C,-1.2096878094,-0.8814829265,0.2457710563\H,-1
 .6907300162,-1.4731098059,1.0218871117\\Version=ES64L-G16RevA.03\State
 =1-A\HF=-234.4568424\RMSD=1.597e-09\RMSF=1.658e-05\ZeroPoint=0.142331\
 Thermal=0.148592\Dipole=0.1555589,0.0212691,0.0087062\DipoleDeriv=0.08
 22792,-0.0375123,-0.0288619,0.014207,0.0734607,0.0289171,-0.0070025,-0
 .0348203,0.0144514,0.0772494,0.0641854,0.0193384,0.017967,-0.1079776,0
 .003149,0.0043479,0.0129526,0.0636372,0.0467427,0.0296073,0.0623233,0.
 0338622,0.0035798,-0.0628814,0.0308753,-0.0109095,-0.047388,-0.1583499
 ,-0.0715655,-0.0629541,0.0599233,0.0267753,-0.0017867,-0.1280216,0.031
 0832,0.0522042,0.0532845,0.0058726,0.0283907,-0.029012,-0.0006795,-0.0
 42252,0.0278452,-0.0531999,-0.0446987,0.0696232,-0.0747995,0.058154,-0
 .0566947,-0.0114927,0.0346322,0.0449907,0.0361265,-0.017858,-0.1485104
 ,0.0236591,-0.0598906,-0.1065888,0.0181535,-0.0158197,-0.116816,-0.065
 612,0.0508866,0.0298537,0.0846717,0.0671876,0.066873,0.0297035,-0.0166
 756,0.0545663,-0.0217373,-0.0191902,0.04344,0.0063171,0.0157426,0.0413
 147,0.0067631,0.0494436,0.0130699,0.0599145,-0.0422577,0.0755537,0.038
 0909,-0.0192476,-0.0134724,0.0801428,-0.0342104,-0.016395,0.0328593,0.
 0147741,0.0604076,-0.0144007,0.042199,-0.0180853,-0.0119445,0.078323,0
 .0259479,0.0197992,-0.0454953,0.0851673,-0.010007,0.019163,0.0363078,-
 0.115304,-0.0019499,0.0084336,-0.0151141,0.0631815,-0.2012117,0.059025
 2,-0.155729,-0.125401,-0.0122517,0.0241726,-0.1337473,0.2076015,-0.001
 2545,0.0357921,0.023584,0.0871597,0.0495965,0.0226315,-0.0411193,0.143
 1669,-0.0650011,-0.0184027,-0.2059857,-0.1107641,-0.1450302,0.0724068,
 -0.002337,-0.0657733,-0.0702145,-0.2358814,-0.0071341,0.0546644,-0.015
 9642,0.0720551,-0.0432042,0.0007768,0.0638307,0.1189532,0.1019389,-0.0
 154558\Polar=74.4524538,-0.6924769,79.8730472,-6.5190555,-0.5552833,50
 .2563871\Quadrupole=-2.3165956,1.654357,0.6622387,-0.5340253,-2.213391
 9,-0.2940437\PG=C01 [X(C6H10)]\NImag=1\\0.22215628,0.06994761,0.709245
 84,-0.26527531,-0.01450569,0.55466338,-0.04166030,0.02996939,0.0137544
 0,0.03824851,0.02208414,-0.34058217,-0.03580507,-0.02430243,0.35974782
 ,0.01607449,-0.03557629,-0.05607741,-0.01562103,0.03709290,0.05114510,
 -0.05988945,0.03216080,0.10076040,0.00009725,-0.00018257,0.00218470,0.
 08285167,0.02783207,-0.08595426,-0.07822001,0.01042605,-0.00537086,-0.
 02632492,-0.03376851,0.08774313,0.11587802,-0.07685175,-0.28065942,0.0
 0089938,0.00077229,0.00037889,-0.11475196,0.08399806,0.29081412,0.0719
 9401,-0.00003597,0.00185227,-0.00011022,-0.00026806,-0.00152856,-0.014
 71313,0.00300540,-0.00847540,0.14510018,-0.06562040,-0.01951744,-0.002
 92849,0.00566247,0.00020751,0.00430647,0.00718059,-0.00112169,0.005079
 95,0.04973905,0.71708395,0.02191938,-0.00114959,-0.01285540,0.00130680
 ,-0.00042957,0.00029699,-0.01131266,0.00154621,-0.00635116,-0.18949252
 ,0.02361136,0.59459610,-0.01480753,-0.00357431,-0.00845746,0.00071388,
 0.00014853,0.00049424,-0.00016176,0.00000245,0.00016086,-0.03492616,0.
 01443995,0.06026762,0.04557723,0.00018109,0.00074788,0.00118203,0.0001
 5844,-0.00001701,0.00010291,0.00017608,-0.00012630,-0.00004398,0.02362
 777,-0.11901548,-0.11603584,-0.03023531,0.12389715,-0.00346829,-0.0006
 0503,-0.00275353,-0.00019244,0.00036660,-0.00004581,0.00003744,0.00022
 888,0.00036135,0.06329739,-0.12247597,-0.27869925,-0.06284164,0.126975
 63,0.28763319,-0.01444003,-0.00344105,0.00310291,0.00004153,0.00034015
 ,0.00029349,-0.00007517,-0.00086107,0.00048367,-0.07343656,-0.07938489
 ,0.10020213,-0.00145943,-0.00203972,0.00223158,0.08316121,0.00050825,0
 .00088329,0.00038519,0.00005757,-0.00008441,-0.00008225,-0.00006426,0.
 00004155,-0.00026903,-0.06770462,-0.14686784,0.11378067,0.00735885,0.0
 0984080,-0.01044938,0.07118758,0.15463592,-0.00776000,-0.00215115,0.00
 054320,0.00049807,0.00002473,0.00006517,-0.00090422,-0.00012467,0.0009
 9235,0.09800087,0.11235731,-0.20511740,0.00960039,0.01609524,-0.014132
 87,-0.09829674,-0.12738295,0.21307557,0.02642526,0.00896308,-0.0007082
 7,-0.00112093,-0.00020287,-0.00120197,-0.00356643,0.00108501,-0.002697
 95,-0.08814713,0.09239683,0.01400790,0.00447328,0.00868106,0.00056534,
 0.00702529,-0.01215495,0.00083325,0.21187936,0.07327921,0.00727412,-0.
 00000078,-0.00059163,-0.00022183,-0.00135700,-0.00824690,0.00089982,-0
 .00554954,-0.00576360,-0.39625730,-0.02051370,0.01032020,-0.01079740,0
 .00479489,0.01317641,-0.01406026,0.00219200,-0.18785210,0.65248782,0.0
 1561868,0.00513768,-0.00260004,-0.00055026,0.00003868,-0.00063496,-0.0
 0292044,0.00102555,-0.00133041,0.00773006,0.01650972,-0.10707600,0.005
 19836,-0.02844893,0.00444270,-0.00287979,0.02535158,0.00433125,-0.1791
 1911,-0.07213743,0.59243494,-0.00595451,-0.00111606,0.00027867,0.00003
 930,0.00002695,0.00000948,0.00044187,0.00007073,0.00030710,0.00575129,
 -0.00768211,0.00392432,0.00585660,-0.00027599,0.00140708,-0.00430129,0
 .00023078,-0.00264379,-0.11631539,0.08444400,0.12898394,0.12463623,-0.
 00173459,-0.00101852,-0.00028097,0.00015326,0.00007352,0.00014479,0.00
 021180,0.00000880,0.00012606,0.01760926,-0.01212915,-0.02562552,0.0026
 2363,-0.00515700,0.00119933,-0.00173345,0.00126824,-0.00050673,0.07284
 036,-0.09931427,-0.08014044,-0.07601210,0.10779970,-0.00406637,-0.0001
 8739,0.00011422,-0.00004463,0.00005433,-0.00002911,0.00042251,-0.00005
 586,0.00018998,0.00179337,-0.00223243,0.00367424,0.00222585,0.00002785
 ,0.00196293,-0.00270621,-0.00020182,0.00006053,0.12620963,-0.07941779,
 -0.20980799,-0.13064964,0.09377153,0.21843442,-0.00662614,-0.00024138,
 0.00025224,-0.00013699,0.00006676,0.00007327,0.00088694,-0.00006960,0.
 00054696,0.00831388,-0.00489143,-0.00283802,-0.00468593,-0.00000367,-0
 .00185894,0.00566764,0.00037049,0.00214887,-0.03098975,0.01016073,0.02
 595579,0.00080181,-0.01019451,0.01331590,0.03537565,-0.00184204,-0.000
 79453,0.00002179,0.00013521,0.00006039,0.00016740,0.00005600,-0.000038
 84,0.00004851,-0.00324371,-0.01519548,0.02834192,-0.00164119,0.0013191
 0,-0.00069641,0.00328688,-0.00495108,0.00040744,0.00092849,-0.12897337
 ,0.13152119,-0.00054414,0.00766022,-0.01237664,0.00545879,0.14049068,-
 0.00140734,-0.00065041,0.00023498,0.00002208,-0.00000664,0.00011163,0.
 00033125,-0.00006747,0.00019468,0.00175856,-0.00490293,0.00500219,-0.0
 0199786,0.00018030,0.00069963,0.00174107,-0.00093497,0.00194136,0.0269
 0292,0.13850424,-0.27267435,-0.00074803,0.01120674,-0.01421299,-0.0250
 8177,-0.14270748,0.28123801,-0.06340720,-0.01402339,0.00600111,-0.0004
 8072,0.00003442,0.00126977,0.00798652,-0.00174246,0.00420545,0.0465263
 6,-0.06262435,0.01481623,-0.00674130,0.00020082,-0.00150421,-0.0063559
 6,0.00032886,-0.00394511,0.04820090,0.08415654,0.02256959,-0.01409313,
 -0.00453384,-0.00810374,-0.01458221,-0.00441635,-0.00356354,0.29257541
 ,-0.00265578,-0.00473872,-0.00426939,0.00150301,0.00032164,0.00049425,
 0.00043722,-0.00243503,-0.00027357,0.00208519,-0.01275331,-0.00094902,
 -0.00143542,-0.00068553,0.00022779,-0.00038989,-0.00062446,-0.00093924
 ,0.01905179,0.00409052,0.00737642,-0.00084796,0.00050960,-0.00003433,-
 0.00055229,0.00057509,-0.00027659,-0.18130075,0.63939192,0.00476019,0.
 00576181,-0.00392761,-0.00053728,0.00031154,-0.00132529,-0.00080738,0.
 00292873,0.00057617,-0.00079430,-0.00021268,-0.00266673,0.00023947,0.0
 0002528,0.00024577,0.00020537,0.00032770,0.00011216,0.00123336,0.00343
 866,-0.01267860,0.00312088,0.00048418,0.00057218,-0.00779129,-0.003340
 22,-0.00279909,-0.26235549,-0.05552850,0.55406645,0.00688933,0.0021880
 9,0.00004259,-0.00049769,0.00000084,-0.00050622,0.00057970,0.00102770,
 -0.00007324,-0.00512192,0.00662184,-0.00236283,0.00081637,0.00017762,0
 .00030231,0.00048651,-0.00008705,0.00038881,-0.01108757,-0.00973456,-0
 .01066869,-0.00030610,-0.00001152,-0.00089641,-0.00011440,-0.00017611,
 0.00009484,-0.04550451,-0.02219403,0.07429197,0.06485852,0.00426793,-0
 .00129348,-0.00309578,-0.00011501,0.00030591,0.00003896,0.00024534,-0.
 00396385,0.00080870,-0.00268497,0.00237995,-0.00167929,0.00029922,0.00
 002695,0.00015011,0.00005686,-0.00003556,0.00016309,-0.00565496,-0.004
 50745,-0.00449402,0.00075294,0.00026795,-0.00014364,-0.00000371,-0.000
 17298,-0.00022285,-0.01820807,-0.10450543,0.10667120,0.02899454,0.1101
 7511,0.00403803,0.00134881,0.00052212,-0.00050039,0.00006296,0.0004475
 8,0.00015251,-0.00090393,0.00042875,-0.00413799,0.00465862,-0.00123792
 ,0.00054185,0.00009702,0.00019711,0.00032953,-0.00004313,0.00019046,-0
 .00686707,-0.00708512,-0.00654371,0.00041207,0.00037292,0.00099672,0.0
 0014224,0.00007348,0.00035635,0.08928922,0.10946112,-0.27647441,-0.086
 08586,-0.11617054,0.28631321,-0.00000973,-0.00158689,-0.00047104,0.000
 61158,-0.00001538,0.00000370,-0.00047217,-0.00009276,-0.00046577,-0.00
 127887,0.00032687,-0.00051134,-0.00006720,-0.00017227,0.00001627,0.000
 09041,-0.00014886,-0.00003104,0.00130320,-0.00541298,0.00100243,0.0001
 4068,-0.00000672,0.00048620,0.00074335,0.00005626,-0.00008659,-0.05006
 878,0.05215344,0.00465866,0.00235620,-0.00816439,0.00088474,0.04924087
 ,-0.00016000,-0.00012623,-0.00041660,0.00020984,-0.00007849,-0.0000433
 1,-0.00020910,0.00028570,-0.00019980,-0.00006073,-0.00009377,-0.000175
 23,-0.00010518,-0.00000389,0.00001021,-0.00002352,0.00002843,-0.000062
 79,0.00058488,-0.00114990,0.00073048,-0.00028231,-0.00018486,0.0001074
 4,0.00005328,-0.00003430,-0.00040549,0.05996514,-0.33371772,0.03177727
 ,0.00247960,-0.00820827,-0.00070258,-0.06341410,0.35036641,0.00135041,
 -0.00009617,-0.00133881,-0.00000381,0.00003363,0.00031251,-0.00048105,
 -0.00017869,0.00044067,-0.00152738,0.00099688,-0.00060991,0.00011482,-
 0.00014288,0.00010801,0.00004818,-0.00013477,-0.00003300,-0.00030367,-
 0.00458154,0.00020172,0.00025460,0.00015374,0.00006823,0.00050171,0.00
 003361,-0.00005555,0.00712850,0.03222601,-0.05454163,-0.00500120,0.025
 76123,0.00096290,-0.00635517,-0.03302358,0.04955919,-0.15694929,-0.121
 90452,0.13834343,0.00608553,0.00495301,-0.00305270,-0.00995701,-0.0055
 1713,0.00390447,-0.03053873,0.01684043,-0.00488176,0.00188378,-0.00055
 802,0.00138576,0.00140457,-0.00015303,0.00048333,-0.01066954,-0.013214
 33,-0.00036358,0.00007907,-0.00034980,0.00037813,0.00158679,0.00028514
 ,0.00016764,0.00799258,0.02348185,-0.00078149,-0.00388018,-0.00189236,
 -0.00205164,0.00001566,0.00289031,0.00494803,0.41106257,-0.05104944,-0
 .22343911,0.10446163,-0.02224039,-0.01415753,0.01743101,-0.00309743,0.
 01412700,-0.01183167,-0.05709811,0.04684605,-0.01434235,0.00704994,-0.
 00002289,0.00218854,0.00512409,-0.00031561,0.00305709,-0.03194764,-0.0
 5964366,-0.01587610,0.00560843,0.00163702,0.00343873,0.00582934,0.0014
 8916,0.00206644,0.08248392,-0.01930511,-0.01899429,-0.00835067,-0.0050
 6671,-0.00281427,-0.00010970,0.00067660,-0.00170628,-0.00098482,0.6853
 7919,0.11398547,0.11365974,-0.20077448,-0.00315092,-0.00498757,0.00442
 564,0.02152537,0.01633832,-0.00811954,0.01805780,-0.01899865,0.0046895
 2,-0.00441972,-0.00003563,0.00049076,-0.00284922,-0.00026321,-0.001119
 08,0.00955869,0.02077972,0.00742708,-0.00206240,-0.00054512,-0.0012518
 9,-0.00137179,-0.00040426,-0.00050357,-0.02001267,-0.02024233,0.012340
 50,-0.00039095,0.00099416,0.00075987,0.00767959,0.00010747,0.00211372,
 -0.29587707,-0.01757860,0.47839556,-0.00269512,0.00889994,0.01394108,-
 0.00301028,0.00006238,-0.00277022,0.00320975,-0.00270559,0.00310980,-0
 .00183372,0.00189470,-0.00046982,0.00014117,-0.00003103,-0.00015217,0.
 00031665,-0.00003118,0.00018337,-0.00071107,-0.00256477,-0.00058777,0.
 00030861,0.00009013,0.00013357,0.00016401,0.00011722,0.00006957,0.0059
 5051,0.00089943,0.00227070,-0.00054610,0.00001617,-0.00029567,-0.00001
 835,0.00004048,0.00022220,-0.13764878,0.05699371,0.12540638,0.13845542
 ,-0.01097149,0.01015440,0.01787388,0.00029653,0.00089874,0.00001585,-0
 .00292471,-0.00189262,0.00200006,-0.00066613,0.00056543,-0.00023456,0.
 00013176,0.00009665,-0.00003268,0.00020208,0.00004453,0.00006473,-0.00
 054561,-0.00073487,-0.00016168,0.00000145,-0.00002949,0.00007070,0.000
 11554,0.00000306,-0.00001794,0.00022587,-0.00574671,0.00186755,-0.0002
 9026,0.00008963,-0.00019920,0.00153542,-0.00050190,-0.00064352,0.05966
 070,-0.10187534,-0.07947747,-0.06620870,0.10655419,0.01176844,-0.00744
 540,-0.01099117,-0.00345746,0.00056951,-0.00140234,0.00604595,0.001451
 39,0.00145794,-0.00138823,0.00156741,-0.00070566,0.00031041,-0.0000204
 1,0.00000395,0.00019821,-0.00005187,0.00031556,-0.00063347,-0.00155545
 ,-0.00027586,0.00015319,0.00007118,0.00010078,0.00012440,0.00001798,0.
 00002981,0.00298329,0.00006572,0.00279446,-0.00050381,0.00038356,-0.00
 015750,0.00016850,0.00006175,0.00011605,0.12802733,-0.08256321,-0.1948
 3572,-0.14142748,0.08347432,0.20238215,0.03355711,-0.00838911,-0.00615
 315,0.00082070,-0.00294630,0.00423430,-0.00664289,0.00150405,-0.002686
 97,-0.02603661,0.02272838,-0.00402015,0.00317214,0.00017268,0.00071392
 ,0.00156433,0.00030034,0.00129572,-0.03534888,-0.03971791,-0.00939441,
 0.00257105,0.00093683,0.00130469,0.00342930,0.00148492,0.00195180,-0.2
 0583395,0.12254436,0.16433212,-0.01032776,-0.00145536,0.00053071,0.000
 06325,-0.00096370,0.00178457,-0.08565038,0.01079685,0.03820182,-0.0001
 2025,0.01979523,-0.00033383,0.42854055,-0.06692212,-0.04568176,0.01696
 441,-0.00002478,-0.00021060,0.00293203,0.00791315,-0.00232537,0.002068
 40,0.04111746,-0.04418447,0.01385337,-0.00532424,-0.00005581,-0.001917
 17,-0.00559069,0.00022361,-0.00315922,0.03367891,0.05080484,0.01345184
 ,-0.00425254,-0.00140983,-0.00280183,-0.00597952,-0.00150898,-0.001757
 10,0.05224904,-0.17018272,-0.06254041,-0.00434451,0.01453272,0.0129728
 9,0.02627580,-0.00782242,-0.01797935,0.05237528,-0.31224115,-0.0334322
 1,0.00287059,-0.00831933,0.00455257,-0.06459282,0.66842155,-0.02636732
 ,0.01274836,0.01314186,0.00742900,0.00193900,0.00220229,0.00009626,-0.
 00114299,0.00079150,0.01588255,-0.01866873,0.00730369,-0.00156072,0.00
 002647,-0.00054454,-0.00227339,-0.00000191,-0.00132440,0.01313214,0.02
 435555,0.00552921,-0.00292228,-0.00052825,-0.00118866,-0.00441093,-0.0
 0121367,0.00043099,0.14176865,-0.07821250,-0.20513845,0.02507092,-0.00
 936451,-0.00816076,-0.00378292,0.00367555,0.00412458,0.02882633,0.0379
 1480,-0.10615591,0.00248131,-0.02463183,0.00165888,-0.29082348,-0.0589
 1792,0.47787403,0.00541730,0.00218376,0.00273613,0.00035885,0.00020043
 ,0.00004326,-0.00057570,-0.00019634,-0.00034442,-0.00154268,0.00237207
 ,-0.00055528,0.00021486,-0.00005953,0.00006060,0.00031030,0.00000125,0
 .00014822,-0.00135059,-0.00243832,-0.00057482,0.00034392,0.00011127,0.
 00019714,0.00016607,0.00005464,-0.00015459,-0.00216451,-0.01278019,0.0
 1795450,0.00139962,0.00354584,0.00361773,-0.00265011,-0.00100490,-0.00
 268074,0.00518336,0.00099193,-0.00428037,-0.00196244,-0.00035768,-0.00
 203543,-0.10375772,-0.05944900,0.09745387,0.10060947,0.00285556,-0.005
 15931,-0.00136615,-0.00129752,-0.00089264,0.00065721,0.00011250,0.0001
 2282,0.00011730,0.00034177,0.00005304,0.00000114,-0.00005887,-0.000047
 23,0.00003466,0.00009024,-0.00002716,-0.00003489,0.00014772,0.00010320
 ,0.00011545,-0.00012208,0.00001807,-0.00001886,-0.00011881,0.00007185,
 -0.00000785,0.00720461,0.00980596,-0.01297783,0.00369848,-0.00002450,-
 0.00112905,-0.00122375,0.00056463,-0.00071833,-0.01591270,-0.01408791,
 0.02408564,-0.00034346,0.00069363,-0.00057905,-0.06219844,-0.14004029,
 0.11202257,0.06682478,0.14884583,0.00295151,0.00056247,0.00275810,0.00
 014848,-0.00003732,0.00012909,-0.00037870,-0.00049860,-0.00016587,-0.0
 0102849,0.00133216,-0.00024331,0.00012351,0.00001493,0.00003061,0.0001
 6921,-0.00002986,0.00009913,-0.00091171,-0.00186672,-0.00074496,0.0001
 7480,0.00009656,0.00031639,0.00029137,0.00010538,0.00000593,0.00945295
 ,0.01087417,-0.01115589,0.00629777,0.00019963,0.00139923,-0.00319623,-
 0.00144080,-0.00142869,0.00054378,-0.00485148,0.00211755,-0.00211483,0
 .00003176,-0.00049134,0.09906237,0.11570968,-0.19054432,-0.11158579,-0
 .12020196,0.19791833\\0.00000538,-0.00000161,-0.00000147,-0.00000107,0
 .00000062,-0.00000353,0.00000234,0.00000920,0.00000969,-0.00000922,0.0
 0000698,0.00000522,-0.00000469,-0.00000397,0.00000192,-0.00000812,0.00
 000343,-0.00000104,0.00005278,-0.00002542,0.00002660,-0.00002506,-0.00
 001186,-0.00000831,0.00000328,0.00001106,0.00000884,-0.00002351,-0.000
 03599,-0.00004509,-0.00001904,0.00000227,-0.00001206,0.00002844,0.0000
 0797,0.00000804,-0.00000530,0.00000284,-0.00000527,-0.00001192,-0.0000
 0290,-0.00000740,0.00000279,0.00003756,0.00001564,0.00001294,-0.000000
 18,0.00000821\\\@


 I KNOW YOU BELIEVE YOU UNDERSTAND WHAT YOU THINK I SAID,
 BUT I AM NOT SURE YOU REALIZE THAT WHAT YOU HEARD IS NOT WHAT I MEANT.
 Job cpu time:       0 days  0 hours 10 minutes  7.7 seconds.
 Elapsed time:       0 days  0 hours  0 minutes 38.2 seconds.
 File lengths (MBytes):  RWF=     27 Int=      0 D2E=      0 Chk=      3 Scr=      1
 Normal termination of Gaussian 16 at Fri Dec 12 17:02:25 2025.
Fri Dec 12 17:02:25 CST 2025
